# vtk DataFile Version 3.0
vtk output
ASCII
DATASET POLYDATA
POINTS 5784 float
136.8509 77.0671 48.9365 132.0403 77.12610000000001 49.99 135.3684 79.1656 48.9224 
133.4953 75.4121 50.2144 140.5961 79.2305 47.9857 141.3007 76.5447 47.9668 
137.7683 74.9363 49.1122 127.77029999999999 76.9417 50.9429 129.644 78.8425 49.8734 
128.8813 75.5795 51.3521 139.26839999999999 81.6494 48.2679 133.9573 81.2769 48.9918 
138.2631 83.8956 48.7283 142.7725 84.1129 48.1984 145.5654 82.1983 47.5489 
124.7492 77.69669999999999 51.2356 124.0265 75.8338 52.4947 129.0394 81.19030000000001 49.5063 
133.4292 83.6828 49.1864 125.5799 79.43 50.3243 121.4631 78.83070000000001 51.5733 
121.35679999999999 76.96770000000001 52.5589 124.5133 81.4521 50.1708 129.0956 83.77250000000001 49.4669 
120.5935 80.8423 51.1824 122.6207 83.4141 50.4415 126.1297 84.3263 49.7395 
138.5259 86.6095 49.4113 134.0216 86.6587 49.5251 118.875 82.2496 51.6612 
117.4987 79.2972 52.6569 126.5882 87.3886 49.8369 121.7183 85.8285 50.8525 
143.4665 86.6722 49.0507 148.183 86.0162 48.5839 130.1295 86.9002 49.5242 
118.3596 77.2287 53.3292 141.621 74.1221 48.2062 138.1702 72.9118 49.3636 
134.3888 73.6214 50.3583 125.74459999999999 74.24170000000001 52.807 130.1562 74.0484 51.5494 
115.6397 81.0334 53.1122 117.553 84.6247 52.4584 121.3621 74.1831 54.31 
119.5615 75.65950000000001 53.9809 145.475 78.5122 47.0792 150.7548 80.63759999999999 47.0475 
152.4869 84.486 48.4209 144.685 89.7749 50.414 149.812 89.4096 50.3658 
135.8983 90.56853 49.9981 131.65 90.11364 49.6384 141.7429 72.0548 48.5542 
135.003 72.0296 50.3593 137.9063 70.8147 49.8079 145.298 75.4605 47.1318 
145.1487 73.0677 47.3774 148.8217 74.0777 46.5771 145.1951 71.2039 47.6495 
148.2934 71.9856 46.7234 130.8065 72.2338 51.6348 149.6297 77.01429999999999 46.5575 
127.1977 73.0282 52.7068 123.495 72.8238 54.1328 116.7111 75.9094 54.7721 
117.1971 74.1791 55.9624 115.4228 77.25919999999999 54.3618 114.578 78.83449999999999 53.9652 
112.7279 77.3368 55.6936 114.4649 75.4832 56.091 113.0482 79.89580000000001 54.6048 
114.1858 82.6103 54.0493 139.9146 89.9015 50.2982 121.4492 88.8871 51.3682 
115.3716 85.4937 53.9238 118.0727 88.5247 53.0047 131.1828 92.75076 49.8905 
125.6833 90.18675999999999 50.2329 135.87369999999999 93.60751 50.2472 114.982 88.6498 55.1391 
113.121 84.51 55.2841 129.2272 94.15892 50.23 136.7548 96.86383000000001 50.9806 
133.5284 97.17875 50.7461 125.6808 93.23433 50.7938 121.99549999999999 92.61644 52.0263 
126.5154 96.86564 51.6736 118.7646 92.78737 53.8224 123.01050000000001 96.72354 52.9265 
133.2693 70.5577 51.0564 126.1289 71.6463 53.404 128.9434 70.3622 52.624 
139.7428 94.31669 51.0712 140.3949 96.88648 51.763 142.1361 70.2304 48.8373 
154.378 78.9404 47.29 155.9185 82.7844 48.8546 142.25889999999998 93.43833 51.4957 
119.60589999999999 72.5741 56.0407 150.9486 92.51899 52.4048 146.274 92.92965 52.0149 
130.313 97.37904 50.9889 154.255 88.2188 50.5787 148.2566 70.44200000000001 46.939 
145.5331 69.6301 47.8851 116.4474 72.2664 58.2183 114.2464 73.5831 58.1737 
111.7954 81.5612 55.4916 148.5257 69.0759 47.2292 142.8495 68.5513 48.9944 
145.9305 68.1038 48.1054 135.2835 68.9338 50.9157 139.2669 68.8709 49.9458 
151.7021 72.7976 46.4312 150.6471 71.2037 46.4708 153.61090000000002 71.7364 46.8032 
151.1971 70.1215 46.7752 152.9666 75.4338 46.5962 155.4803 74.2002 47.1469 
122.0906 71.2529 55.5493 118.6476 70.9197 58.1901 139.4056 81.2243 56.2792 
134.1779 80.0181 58.2306 136.2701 78.5578 56.8441 131.2846 77.58670000000001 58.6367 
141.663 79.2344 54.3853 133.4903 76.2324 57.7575 138.6572 76.9399 55.364 
112.2185 75.0236 57.9615 157.2378 86.547 51.0109 110.8811 78.9641 56.1851 
110.4652 76.6003 57.8307 137.0907 82.7416 58.01 132.8619 81.2621 59.1121 
142.7711 84.156 56.1324 134.4976 83.59819999999999 59.2793 140.1259 86.0274 58.161 
155.155 91.59317 52.8686 158.39929999999998 90.18959 53.6219 110.9039 83.6708 56.6002 
112.3167 86.5883 56.5116 109.6623 80.8287 56.8863 108.6508 83.1835 57.7906 
110.2768 86.5376 57.6932 144.4762 96.79685 52.9863 147.753 95.72922 53.5673 
116.0189 94.13401999999999 55.9181 112.492 90.7119 57.3358 137.8429 100.06716 52.0844 
140.786 99.56231 52.6291 120.0317 97.73883000000001 54.6952 127.017 99.95589 52.6628 
124.5744 101.02935 53.8698 131.3642 101.2652 52.2713 134.9118 100.6805 51.9256 
117.2219 99.75472 56.5526 113.6808 96.64058 57.6567 136.0291 103.65291 53.1197 
138.5288 102.66182 53.1962 129.24360000000001 103.40298 53.4142 133.5772 105.01067 53.4951 
121.6143 102.94639 55.4905 131.25560000000002 68.8352 52.358 156.85750000000002 77.49680000000001 47.9343 
158.0593 81.1776 49.5298 129.9651 79.1397 59.3077 151.6748 95.1532 54.2339 
126.5401 105.29444 54.6491 124.7848 69.9834 54.7928 114.3148 71.8412 60.7918 
145.1103 81.8496 53.9369 155.4556 94.41056 54.8046 144.0071 99.23835 53.5915 
143.57330000000002 101.23279 54.2048 141.0002 101.84518 53.5568 154.7047 70.6288 47.8176 
157.4077 73.2926 48.3564 112.41290000000001 73.0984 60.613 130.0165 81.2699 59.7275 
147.6017 99.16314 55.0661 148.84449999999998 97.75022 54.8423 138.76 104.51829000000001 54.0157 
137.19060000000002 106.15623 54.2645 127.31790000000001 68.61619999999999 54.4002 133.0408 67.2299 52.7712 
129.3299 67.09909999999999 54.8639 136.1847 74.9985 56.8869 141.325 75.131 54.0289 
143.0557 77.1534 53.0706 128.244 75.3945 59.8385 127.6166 77.15090000000001 59.58 
123.5248 107.91752 55.9444 131.1575 106.79714 54.2565 128.4248 109.09255 55.2441 
131.4266 74.3281 59.3938 159.0466 84.9124 51.5866 159.60649999999998 87.9325 53.2299 
108.95922 78.2784 58.0185 146.478 100.85473 55.3772 118.0543 105.9756 57.0189 
151.2994 68.816 47.3424 158.9494 76.4936 49.2037 158.4106 93.44871 55.3866 
160.81889999999999 89.80799999999999 55.3222 160.4775 92.53693 56.3702 152.0326 97.28709 55.6741 
143.1163 102.69237 54.7567 145.4651 102.40295 55.7723 136.75130000000001 67.2615 51.2668 
121.0898 69.5838 57.7712 146.1351 75.6624 51.3058 150.7224 76.3651 50.2987 
147.1639 78.7165 51.8379 149.0909 73.819 49.8596 144.9309 73.6699 51.7889 
153.43200000000002 74.5891 49.8361 154.9768 77.9919 51.4846 152.0825 79.25880000000001 51.3686 
137.9957 73.8239 56.605 141.13569999999999 73.20400000000001 54.9039 157.2552 76.11449999999999 51.9188 
154.9096 81.5643 53.3406 158.4275 80.0151 55.0751 134.1476 73.4016 59.2849 
159.4418 79.5223 50.0949 160.7712 82.8358 52.7028 161.4638 79.12219999999999 52.1083 
150.5258 81.9171 52.7789 161.0321 86.8252 54.3082 163.4731 81.3861 55.3492 
163.1112 85.4794 56.5099 124.5358 76.0814 60.6055 124.3923 74.2618 62.273 
127.3043 73.5712 61.8237 148.4899 84.7713 54.7405 125.9218 78.625 59.7509 
110.61410000000001 74.4568 60.5602 146.2517 87.11619999999999 56.8015 151.3502 87.4679 56.549 
153.392 84.7579 54.9388 122.0226 77.3207 60.269 121.3046 75.1784 63.1279 
108.95192 75.98949999999999 60.4923 123.0329 79.6554 59.198 120.3277 78.6936 59.3846 
119.2603 77.096 61.5037 126.80930000000001 81.4948 59.5904 131.6489 84.4224 59.8119 
120.8942 81.2186 58.6661 118.3099 79.28790000000001 59.7566 136.3073 86.1001 59.3797 
139.8838 88.6174 59.221 144.4982 89.2146 58.5419 107.6581 80.18 58.5367 
106.34005 82.4706 59.1065 105.81506 79.4707 61.299 107.43825 77.6412 60.6277 
124.22579999999999 81.9907 59.0147 127.5929 84.2756 59.4631 107.41177 86.5499 58.6427 
104.40986 81.8715 60.9214 104.22472 79.9317 64.2764 106.45893 76.9633 64.51050000000001 
105.25996 78.1503 65.23910000000001 124.09479999999999 84.3571 58.8145 120.7623 84.4089 58.4588 
118.1083 81.8791 58.783 131.6794 87.2059 59.7734 135.6784 87.8872 59.7382 
104.65753 84.7428 59.4517 124.62219999999999 88.2371 58.8551 118.17269999999999 84.7748 58.8697 
120.8034 87.3155 58.7556 104.45253 89.0748 58.8381 102.58159 86.2342 59.936 
103.16341 83.6697 60.8175 128.1562 87.3171 59.3207 109.76707999999999 89.7761 58.4564 
107.60777 91.69186 58.8085 101.49864 89.5567 58.8988 100.58135 87.2719 61.0093 
101.76815 84.4627 62.3438 110.5709 94.25336 58.5315 151.78050000000002 99.21229 56.8518 
102.58508 92.25974 58.0101 104.93503 94.24964 58.2352 102.16381 96.4123 57.1412 
100.26618 93.37257 57.6398 99.41387 98.16089 56.3658 99.21524 90.62474 59.5196 
97.65644 94.97828 57.8759 107.98385999999999 97.3413 58.4737 111.3826 100.01866 58.3197 
104.85287 99.96555 57.4309 101.69956 102.0184 56.3229 114.6171 101.65981 57.7314 
108.49155 104.29415 57.7936 104.66347 106.12425 56.973 141.215 103.82615 54.6447 
113.1284 105.79657 57.8643 140.0471 105.66476 55.0573 144.0571 103.75788 55.9867 
142.4712 105.17756 56.1043 111.193 110.4728 57.745 107.56925 109.66847 57.4736 
134.5799 107.36041 54.3027 101.34857 108.76307 56.7977 98.82723 103.69343 55.8433 
105.28025 112.0749 57.5349 103.34859 115.9263 58.5819 98.13744 108.66964 56.6129 
99.31268 114.2764 58.4075 115.8847 111.2034 57.5644 133.1385 109.80101 55.0595 
136.6548 108.55815 55.0004 139.0323 107.45603 55.4035 109.23367999999999 114.4001 57.9329 
120.8031 111.5514 56.9311 113.8433 115.5297 57.9754 125.4504 111.8368 56.2306 
123.1682 114.9724 57.1045 118.6742 115.533 57.6435 111.6228 119.7754 58.8931 
107.09204 116.9846 58.4648 129.6132 112.2346 55.8601 117.0475 119.4161 58.5012 
126.76429999999999 114.2878 56.5934 125.7846 116.8532 57.4652 121.5934 118.3228 58.0602 
129.6645 115.0425 56.7233 124.7887 119.9688 58.7164 128.992 117.8709 57.9376 
120.6126 121.9281 59.2884 158.7968 72.316 50.0927 156.6279 70.3309 49.612 
153.7577 68.8677 48.6156 161.3418 75.572 51.6398 124.6446 73.0733 64.2174 
122.3978 73.4718 65.6143 126.6034 72.383 64.87700000000001 123.8429 72.3512 67.7239 
118.6231 75.5438 66.322 120.4179 74.03229999999999 67.2401 116.502 82.6049 59.643 
116.4948 80.2916 60.8677 106.97838 121.1841 59.7701 134.4095 65.59960000000001 53.5349 
151.2638 72.24459999999999 49.2746 147.3236 72.2575 50.5347 118.7639 88.7459 59.7805 
116.2647 84.9338 60.5249 96.99478 100.20071 56.2991 96.3871 105.56429 56.3316 
133.1905 112.94239999999999 56.0503 140.2895 67.14529999999999 50.1757 155.166 73.115 50.0682 
[...]
CELL_DATA 11568
SCALARS part float
LOOKUP_TABLE default
19 19 19 19 19 19 19 19 19
19 19 19 19 19 19 19 19 19
19 19 19 19 19 19 19 19 19
19 19 19 19 19 19 19 19 19
19 19 19 19 19 19 19 19 19
19 19 19 19 19 19 19 23 23
19 23 19 23 23 23 19 19 19
23 23 23 19 19 19 19 19 19
19 19 19 19 19 19 23 23 23
23 19 19 19 19 19 19 19 19
23 23 23 19 19 23 23 23 23
19 23 23 23 23 19 23 19 19
23 23 19 19 19 19 19 19 19
19 19 19 19 19 19 19 19 19
19 19 19 19 19 19 19 19 19
19 19 19 19 19 19 19 19 23
23 23 23 23 19 19 19 23 23
19 19 19 19 19 23 23 23 19
19 19 19 19 23 19 19 19 23
23 19 23 23 23 19 19 19 23
23 23 23 23 23 23 19 19 19
19 19 19 19 19 19 19 19 23
23 23 23 19 19 19 19 19 19
23 23 19 19 19 23 23 19 19
19 19 19 19 19 19 19 19 19
19 19 19 19 19 19 19 19 19
19 19 19 19 19 19 19 19 19
19 19 19 19 19 19 19 19 19
19 19 19 19 19 19 19 19 19
19 19 19 19 23 23 19 19 19
19 19 19 19 19 19 19 23 23
23 19 19 19 19 19 19 19 19
23 19 19 19 23 23 19 19 19
19 19 19 19 19 19 23 23 23
23 19 19 19 19 19 19 19 19
19 19 19 19 23 23 23 19 19
19 23 23 19 19 19 19 19 23
19 19 19 19 19 19 19 19 19
19 19 19 19 23 23 23 23 19
19 19 19 19 19 19 19 19 19
23 23 23 23 19 19 19 19 19
23 23 19 19 19 19 19 19 19
19 19 19 19 19 19 19 23 23
23 19 19 19 19 19 23 23 19
19 19 19 19 23 23 23 23 19
19 19 19 23 19 19 19 19 19
19 19 19 19 19 19 19 23 23
23 23 23 23 19 19 19 23 19
19 23 23 23 23 23 19 19 19
19 19 19 19 19 19 19 23 23
19 19 19 19 23 23 23 23 19
19 19 19 19 19 23 23 23 23
23 19 19 19 19 23 23 23 19
23 23 23 23 23 23 23 19 19
19 19 19 19 19 19 19 19 19
19 19 19 19 19 19 19 19 19
19 19 19 19 19 19 19 19 19
19 19 19 19 19 19 19 19 19
19 19 19 19 19 19 19 19 19
19 19 19 19 19 19 19 19 19
19 19 19 19 19 19 19 19 19
19 19 19 19 19 19 19 19 19
19 19 19 19 19 19 19 19 19
19 19 19 19 19 23 23 23 23
23 23 23 23 23 19 19 19 19
23 19 19 23 19 19 19 23 19
19 19 19 19 19 19 19 19 23
23 19 19 19 19 19 19 23 23
19 19 23 19 19 23 23 19 19
19 19 19 19 19 19 23 23 19
19 19 19 19 19 19 19 19 19
19 23 23 23 19 19 19 19 19
19 19 19 19 19 23 23 23 23
19 19 19 19 19 19 23 23 23
19 19 23 19 19 19 19 19 23
23 23 19 19 19 19 19 19 19
19 19 19 19 23 23 23 23 23
19 23 23 23 23 23 23 23 23
23 23 19 19 19 19 23 23 19
19 19 19 19 19 19 19 19 19
19 19 19 19 19 19 19 19 19
19 19 19 19 19 19 19 19 23
23 23 23 23 19 19 19 19 19
19 19 19 19 19 19 19 19 19
19 19 19 19 19 19 23 23 19
19 19 19 19 19 19 19 19 19
19 19 19 19 19 19 19 23 23
19 19 23 23 19 19 19 19 19
23 23 23 23 23 19 19 19 19
19 19 19 19 19 19 19 19 19
19 23 23 19 19 19 19 19 19
19 19 19 19 23 23 19 19 19
19 23 23 23 23 19 19 23 23
19 19 19 19 19 19 23 23 23
23 23 23 23 23 23 19 19 19
19 19 23 23 23 23 23 23 23
19 23 23 23 19 23 19 19 19
19 19 19 19 19 19 19 19 19
19 19 19 19 23 23 23 19 19
19 19 19 19 19 19 19 19 19
19 19 19 19 19 19 19 23 23
23 23 19 19 19 19 19 19 23
19 19 19 19 19 23 23 23 23
19 19 19 19 23 23 19 19 19
19 19 19 19 23 23 23 23 23
23 23 23 19 19 19 19 23 23
23 23 23 23 19 19 19 19 19
19 19 19 19 19 19 19 19 19
19 19 19 19 19 19 23 19 19
19 19 19 19 19 19 19 19 19
19 19 19 19 19 19 19 19 19
19 19 23 23 23 23 23 23 23
23 23 23 19 23 23 19 19 19
19 19 19 19 19 19 19 19 19
19 23 19 19 19 19 19 19 19
19 19 19 23 23 23 23 23 19
19 19 19 19 19 19 19 19 19
19 19 19 19 19 19 19 19 19
19 23 23 19 19 19 19 19 19
19 19 19 19 19 19 19 19 19
23 23 23 23 19 19 23 23 23
23 23 23 23 19 19 23 23 23
23 23 19 19 19 19 19 19 19
19 23 23 23 23 23 23 23 23
19 19 19 19 19 19 19 19 23
23 23 19 19 19 19 23 23 19
19 19 19 19 19 19 19 19 19
19 19 19 19 19 19 19 19 19
19 19 19 19 19 19 19 19 19
19 19 19 19 19 19 19 19 19
19 19 19 19 19 19 19 19 19
23 19 19 19 23 23 23 19 19
23 23 23 19 19 19 19 19 19
19 19 19 19 19 19 19 19 19
23 23 23 23 19 19 19 19 19
19 19 19 19 23 23 23 19 23
23 19 19 19 19 19 19 19 19
23 23 19 19 23 23 23 19 19
19 19 19 19 19 19 19 19 19
19 19 19 19 19 23 19 19 19
19 19 19 19 19 19 23 19 23
23 23 23 23 19 19 19 19 19
19 19 19 19 19 23 23 23 23
23 23 23 19 19 19 19 23 23
19 23 19 19 19 19 19 19 19
19 19 23 23 23 23 23 23 23
23 19 19 19 23 23 23 19 19
19 19 19 23 23 19 19 19 19
19 23 23 23 23 19 19 19 19
19 19 19 23 23 19 23 19 23
23 23 19 19 19 19 19 19 19
23 23 23 19 19 19 19 19 19
19 19 19 19 19 19 19 19 19
19 23 23 19 19 19 19 19 19
19 19 19 19 19 19 19 19 19
19 19 23 19 23 23 23 19 19
19 19 19 19 23 23 19 23 23
23 19 19 19 19 19 19 19 19
19 19 19 19 19 19 19 19 19
19 19 19 19 19 19 19 19 23
23 19 19 19 19 19 19 19 23
23 23 23 19 19 19 19 19 19
23 19 19 19 19 19 19 23 23
19 19 19 23 23 23 23 23 19
19 19 19 23 23 23 23 23 19
19 19 19 19 19 19 19 19 23
23 23 19 19 19 19 19 19 19
19 19 19 19 19 19 23 23 19
23 23 23 19 19 19 19 19 23
19 19 19 19 19 19 19 19 19
19 19 23 19 23 23 23 23 23
19 19 19 23 19 19 19 19 19
19 19 23 23 19 19 19 19 19
19 19 19 19 19 19 19 19 19
19 19 23 19 19 23 23 23 19
19 23 23 23 23 23 23 23 23
23 23 23 23 23 23 23 23 23
23 19 23 23 23 23 23 19 19
23 19 19 19 19 19 19 19 19
19 19 19 19 19 19 19 19 19
19 19 19 19 19 19 19 19 19
19 19 19 19 23 23 23 19 19
19 23 23 23 23 19 19 19 19
19 19 19 19 19 19 23 23 23
23 23 23 23 23 23 19 19 19
19 19 19 19 19 19 19 19 19
19 23 23 23 23 23 23 19 19
19 19 19 19 19 19 19 19 19
19 19 19 23 23 19 19 19 19
19 19 19 19 23 19 19 19 19
19 19 19 23 23 19 19 19 19
19 23 23 19 19 19 19 19 19
19 19 19 19 19 19 23 23 23
23 23 23 23 23 23 23 19 19
19 19 19 19 19 19 19 19 19
19 19 19 19 23 23 23 19 19
19 19 19 19 23 23 23 19 19
19 19 19 19 19 19 23 23 23
19 19 19 19 19 19 19 19 19
19 19 19 19 19 19 19 19 19
19 19 19 19 19 19 19 19 19
19 19 19 19 19 19 19 19 19
19 19 19 19 23 23 23 19 23
19 19 19 19 19 19 19 19 19
19 19 19 19 19 19 19 19 19
19 23 23 19 19 19 19 19 23
23 23 19 19 19 19 19 19 19
19 19 19 19 19 19 19 23 23
23 23 19 19 19 19 19 23 23
19 19 19 19 23 19 19 19 19
19 19 19 23 23 23 19 23 23
19 19 23 23 23 23 23 19 19
19 19 19 19 19 19 19 19 19
19 23 19 19 19 19 23 19 23
19 19 19 19 19 19 19 19 19
23 23 23 23 19 19 19 19 19
23 23 19 23 23 23 23 23 19
19 19 19 19 19 19 19 19 19
19 19 19 19 19 19 19 19 19
19 19 19 23 19 19 23 23 23
23 19 19 23 23 23 19 19 19
19 19 19 19 19 23 23 23 23
23 19 23 23 19 19 19 19 19
19 19 19 19 19 19 19 19 19
19 19 19 19 23 23 19 19 19
19 23 19 19 19 19 19 19 19
19 19 19 19 19 19 19 19 23
23 23 19 23 23 19 23 23 23
23 19 19 19 19 19 19 19 19
19 19 19 19 23 19 19 19 19
19 19 19 19 19 19 19 23 23
23 23 23 19 23 23 23 23 23
19 19 19 19 19 19 19 19 19
23 19 19 19 19 19 19 19 23
23 19 19 19 19 23 23 23 23
23 19 19 19 19 19 19 19 19
19 19 19 19 19 19 19 23 23
23 23 23 23 19 19 19 19 19
19 19 19 23 23 19 19 19 23
23 23 23 23 19 19 19 19 19
19 19 19 19 19 19 19 19 19
19 19 19 19 19 19 19 19 19
19 23 23 19 19 23 23 23 23
23 23 23 23 23 23 19 19 19
19 19 19 19 19 19 19 19 19
19 23 23 23 19 19 19 23 23
23 23 23 23 23 19 19 19 19
19 19 19 19 19 23 19 19 19
19 19 19 19 19 19 19 23 23
23 19 19 19 19 19 19 19 19
19 19 19 19 19 19 19 19 19
19 19 19 19 19 19 19 19 19
19 19 19 19 19 19 19 23 23
23 19 19 19 19 23 23 23 23
23 23 23 23 23 23 23 23 23
23 19 19 19 19 19 19 19 19
19 23 23 23 23 23 23 23 23
23 23 23 23 23 23 23 23 19
19 19 19 19 19 19 19 19 19
23 23 23 23 23 23 23 23 19
19 19 19 19 19 19 19 19 19
19 19 23 23 23 19 19 19 19
23 23 23 23 23 19 19 19 23
19 19 19 19 19 19 19 19 19
19 19 19 19 19 19 19 19 23
19 19 19 19 19 19 23 23 23
23 23 23 23 23 23 19 19 19
23 23 19 19 19 19 19 19 19
19 19 19 19 23 23 19 19 19
19 19 19 23 19 19 19 23 23
19 19 19 19 19 19 19 23 19
23 23 23 23 23 19 23 23 19
23 23 19 19 19 19 19 19 19
19 19 19 19 23 19 19 19 19
23 23 19 19 23 19 19 19 19
19 19 19 19 19 19 19 19 19
19 23 19 19 19 23 23 19 23
23 23 19 19 19 19 19 19 19
19 19 19 19 19 19 19 19 19
23 23 23 23 23 19 19 23 23
23 19 19 19 23 23 23 23 23
19 19 19 19 19 19 19 19 19
19 19 19 19 19 19 19 19 19
19 19 19 19 19 19 19 19 19
19 23 23 23 23 23 23 23 19
19 19 19 19 19 19 19 19 19
19 23 23 23 19 19 19 19 19
19 19 19 19 19 19 19 19 19
19 19 19 19 19 23 19 19 19
19 19 19 19 19 23 23 19 23
23 19 19 19 19 19 19 19 19
19 19 19 23 19 19 19 19 19
19 19 19 23 19 19 19 19 19
19 19 19 19 23 23 23 19 23
23 23 23 23 23 23 19 19 19
19 19 19 19 19 19 19 19 19
23 23 19 19 19 19 19 19 19
19 23 23 23 19 19 19 19 19
19 19 19 19 19 23 23 23 23
19 19 19 23 23 19 19 19 19
19 19 19 19 19 19 19 19 19
23 19 19 19 19 19 19 19 23
19 19 19 23 23 23 23 23 19
19 19 19 19 19 19 19 19 19
19 19 19 19 19 19 19 19 19
19 23 23 23 19 19 19 19 19
19 19 19 23 19 19 19 19 19
19 19 19 19 19 23 23 23 23
19 23 23 19 23 23 19 19 19
19 19 19 19 19 19 19 19 19
19 19 19 19 19 19 23 23 23
19 23 23 19 19 19 19 19 19
23 23 23 23 23 23 19 19 19
19 19 19 19 19 19 23 19 19
19 19 19 19 19 19 23 23 19
19 19 19 19 19 19 19 19 19
19 23 23 23 23 23 23 19 19
19 19 19 19 19 19 19 19 19
19 19 19 19 19 19 19 19 23
23 23 23 23 23 23 23 23 23
23 23 23 23 19 19 23 23 19
19 19 19 19 19 19 19 19 19
23 23 23 23 23 19 19 19 19
19 19 19 23 23 19 23 23 23
19 19 19 19 19 19 19 19 19
19 19 19 19 19 19 23 23 23
19 23 23 23 19 19 19 19 19
19 19 19 19 23 23 23 23 23
23 23 23 23 19 19 23 23 23
23 23 23 23 23 23 23 19 19
23 19 23 19 19 19 19 19 19
19 19 19 19 23 23 23 23 19
19 19 23 19 19 19 19 19 23
19 19 19 19 19 23 23 19 19
19 23 23 23 23 23 23 19 19
19 19 19 19 19 19 19 19 19
19 19 19 19 19 23 19 19 23
19 19 19 19 19 19 19 19 19
19 19 23 23 23 23 23 23 23
23 23 23 23 19 19 23 23 19
19 19 19 19 19 19 19 19 19
23 19 23 23 23 23 23 23 23
23 23 23 23 23 19 19 19 19
19 19 19 19 19 19 23 23 19
19 23 23 23 23 23 23 19 19
19 23 23 23 19 19 19 19 19
19 19 19 19 19 19 23 23 23
23 23 19 19 19 19 19 19 19
23 19 19 19 19 19 19 19 19
19 19 23 23 23 23 19 19 23
23 23 19 19 19 19 19 19 19
19 19 19 19 19 23 23 19 19
19 19 19 23 19 19 19 19 19
19 19 19 19 19 19 19 19 19
23 19 19 19 23 23 19 19 19
19 19 19 19 19 19 19 19 19
19 19 19 19 19 19 19 19 19
19 19 23 23 19 19 19 19 19
19 19 19 19 19 19 19 19 19
19 19 19 19 19 19 19 23 23
23 23 23 23 19 19 19 19 19
19 19 19 19 19 19 19 19 19
19 19 19 19 19 19 19 19 23
23 23 23 23 19 19 19 19 19
19 19 19 19 19 19 19 19 19
23 23 23 23 23 19 19 19 23
23 19 19 19 19 19 19 19 19
19 19 19 19 19 23 23 23 23
23 23 23 19 19 19 19 19 19
19 19 23 23 19 19 19 19 19
19 19 19 19 19 19 19 19 23
23 23 23 23 23 23 23 23 23
23 23 23 19 23 19 19 19 19
19 19 19 19 19 19 19 19 19
23 23 19 19 19 19 23 23 23
19 19 19 19 19 19 19 19 19
19 23 23 23 23 23 23 19 19
19 19 19 19 19 19 19 19 19
19 23 23 23 23 23 23 23 23
23 19 19 19 19 19 19 19 19
19 19 19 23 23 19 19 19 19
19 19 19 19 19 19 19 23 23
19 23 23 23 23 23 23 23 23
23 23 23 19 19 19 19 19 19
19 19 23 19 19 23 19 19 23
23 19 19 19 19 19 19 19 19
19 19 19 19 19 19 23 23 23
23 23 19 19 19 19 23 23 23
23 23 23 23 23 23 23 23 19
19 19 19 19 19 19 19 19 19
19 19 23 19 23 23 23 19 19
19 19 19 19 19 19 19 19 19
19 19 19 19 19 19 23 23 23
23 23 19 19 19 19 19 19 19
19 19 19 19 19 19 19 19 19
19 19 19 19 19 23 19 19 19
19 19 19 19 19 19 19 19 23
19 19 19 19 19 19 19 19 19
19 19 19 19 19 19 19 19 23
23 23 23 23 23 19 19 19 19
19 19 19 19 19 19 19 23 23
23 23 23 19 19 19 19 19 19
19 19 19 19 19 19 19 19 19
19 19 23 23 23 23 23 23 23
19 19 19 19 19 19 19 19 19
19 19 19 19 19 19 19 19 23
23 19 19 19 23 23 19 19 19
19 19 19 19 19 19 19 19 19
19 19 19 19 23 23 23 23 19
19 19 23 23 23 19 19 19 19
19 19 19 19 19 19 23 19 19
23 19 19 19 19 19 19 19 23
23 23 23 23 19 19 19 19 19
19 19 19 19 19 19 23 19 23
23 23 23 19 19 19 19 19 19
19 19 19 19 19 19 19 19 23
23 23 23 23 23 23 23 23 23
23 23 23 19 19 19 19 19 19
19 19 19 19 19 23 23 23 23
23 23 19 19 23 23 23 19 19
19 19 19 19 19 19 19 19 19
23 19 19 23 19 19 19 19 19
19 19 19 19 19 19 23 23 23
19 19 19 19 19 23 23 19 19
19 19 19 19 19 19 19 19 19
19 19 23 19 19 23 23 23 23
23 23 23 23 19 19 19 19 19
19 19 19 19 19 19 19 23 23
19 19 19 19 19 19 19 19 19
19 19 19 19 23 23 23 23 23
23 23 23 23 19 19 23 19 19
19 19 19 19 19 19 19 19 19
19 19 19 19 23 23 23 23 19
19 23 23 19 19 19 19 23 23
19 19 19 19 19 19 19 19 19
19 19 19 19 19 19 23 23 23
23 23 23 23 23 19 19 19 19
19 19 19 19 19 19 23 23 19
19 19 19 19 23 23 23 19 19
19 19 19 19 19 19 19 19 23
23 23 19 19 19 19 19 19 19
19 19 19 19 19 23 19 23 23
19 19 19 19 23 23 23 19 19
19 19 19 19 19 19 19 19 19
23 23 23 19 19 23 19 19 19
19 19 19 23 23 23 19 23 19
19 19 23 23 23 23 23 23 23
23 19 19 19 19 19 19 19 19
19 19 19 19 23 23 23 23 23
23 23 19 19 19 19 19 19 19
19 19 19 19 23 23 23 23 23
23 23 19 19 19 19 19 19 19
19 19 19 19 19 19 23 23 23
23 23 23 23 23 23 23 23 19
19 19 19 19 19 19 19 19 19
19 23 23 23 23 19 19 19 19
19 19 19 23 23 19 19 19 19
19 19 19 19 19 19 19 19 23
23 23 19 23 19 19 23 23 23
19 19 19 19 19 19 19 19 19
19 19 19 23 23 23 23 19 19
19 19 19 19 19 19 19 19 19
23 19 19 19 19 19 19 19 19
19 19 19 19 19 19 19 19 19
19 19 19 19 19 19 19 19 19
19 19 19 23 23 23 23 19 19
19 19 19 19 19 19 19 19 19
19 19 23 23 23 19 23 23 23
19 23 19 19 19 19 19 19 19
19 23 19 19 19 19 23 23 19
19 19 19 19 19 23 19 19 23
23 19 19 19 19 19 19 19 19
19 19 23 23 23 23 19 19 19
19 19 19 19 19 19 19 19 19
19 19 23 23 19 19 19 23 23
23 23 23 19 19 19 19 19 19
19 19 19 19 19 19 23 23 23
23 23 19 19 19 19 23 23 23
23 19 19 19 19 19 19 19 19
19 19 19 19 19 19 19 23 23
23 23 23 23 23 19 23 19 19
19 19 19 19 23 23 19 23 19
23 19 19 19 19 19 19 19 19
19 19 19 19 19 19 23 23 23
19 19 19 19 19 19 19 19 19
19 23 23 23 19 19 23 23 19
19 19 19 19 19 19 19 19 23
23 23 23 23 19 19 19 19 19
19 19 19 23 19 19 19 23 19
19 19 19 19 19 19 19 19 19
19 19 19 19 19 19 19 19 19
19 19 19 19 19 19 19 23 23
19 19 23 23 23 23 23 19 19
19 19 19 19 19 19 19 19 23
23 23 19 19 19 19 19 19 19
19 19 19 19 23 23 23 23 23
23 23 23 23 23 23 19 19 19
19 19 19 19 19 19 23 23 23
23 23 23 23 23 23 23 19 19
19 19 19 19 19 19 19 23 23
23 23 23 23 19 19 19 19 19
19 23 23 23 19 19 19 19 19
19 19 19 23 23 23 23 23 23
23 19 23 23 23 23 23 23 23
19 19 19 19 19 19 19 19 19
19 19 19 19 19 19 19 19 19
19 19 19 19 19 19 19 19 23
23 23 23 19 23 23 23 19 19
19 19 19 19 19 23 23 23 23
23 23 19 19 23 19 19 19 19
19 19 19 23 23 23 23 23 23
23 19 19 19 19 19 19 23 23
23 23 23 19 19 19 19 19 19
19 19 19 19 19 23 23 23 19
19 19 19 23 23 19 19 19 19
19 19 19 23 23 23 23 23 23
23 19 19 19 19 19 23 19 19
19 19 19 19 19 19 19 19 19
19 23 23 23 23 23 23 23 23
23 23 23 23 19 19 19 19 19
19 19 19 19 19 23 23 23 23
23 19 19 19 19 19 19 19 19
19 19 19 23 23 23 23 23 23
23 23 23 19 19 19 19 19 19
19 19 19 19 19 23 23 23 23
23 23 23 23 23 23 19 19 19
19 19 19 19 19 19 23 23 23
19 19 19 19 19 19 19 23 23
23 23 19 19 19 19 19 19 19
19 19 19 23 23 23 19 19 19
19 23 23 23 23 19 23 23 23
23 23 23 23 23 23 23 23 23
23 19 19 19 19 19 19 19 19
19 19 19 19 19 19 19 19 19
19 19 19 19 23 23 23 23 23
23 19 19 19 19 19 19 19 19
19 19 19 23 23 23 19 19 19
19 19 19 19 19 19 19 19 23
23 23 23 19 19 19 19 19 19
19 19 19 19 23 23 19 19 19
19 19 19 19 19 19 23 23 23
19 19 19 19 19 19 19 19 19
19 23 19 23 23 23 23 23 23
23 23 19 19 19 19 19 19 19
19 19 19 19 19 19 19 19 23
23 23 23 19 19 19 23 23 23
23 19 19 19 19 19 19 19 19
19 19 19 19 19 19 19 19 23
23 23 23 23 23 23 23 23 19
19 19 19 19 19 19 19 19 19
19 19 19 19 19 19 19 19 19
23 23 23 19 19 19 19 23 23
19 19 19 19 19 19 19 19 19
19 19 23 23 23 23 23 19 19
19 19 19 19 19 19 19 19 19
19 19 19 19 19 19 19 23 19
19 19 19 19 19 19 19 23 23
23 23 19 19 19 19 19 19 19
19 19 19 19 23 19 23 23 19
19 19 19 19 19 19 19 19 19
19 19 23 23 19 19 23 23 23
23 23 23 23 19 19 19 19 19
19 19 19 19 19 23 23 23 23
23 23 19 23 19 19 19 23 23
23 19 19 19 19 19 23 23 23
19 19 19 19 19 19 19 19 19
19 19 19 19 19 19 19 19 19
19 23 23 19 23 23 23 23 19
19 19 19 19 19 19 19 19 23
19 19 19 19 19 19 19 23 23
19 19 19 23 23 23 19 19 19
19 19 19 19 19 19 19 23 23
19 19 19 19 19 19 19 19 23
23 23 23 23 23 19 19 19 19
19 19 19 19 19 23 23 23 19
19 23 19 19 19 19 19 19 23
23 23 23 19 19 19 19 19 19
19 19 19 19 19 19 19 23 19
19 19 19 19 19 19 19 23 19
19 23 23 23 19 19 19 19 19
19 19 19 19 19 23 19 19 19
19 19 19 19 19 19 19 19 19
23 19 19 19 19 19 19 19 19
19 19 19 19 19 19 19 19 19
19 19 19 19 19 19 19 19 23
19 19 19 19 19 19 23 23 23
23 23 19 19 19 19 23 19 23
23 19 19 19 19 19 19 19 19
23 23 19 19 19 19 19 19 19
19 19 23 19 19 19 19 19 19
19 23 23 23 19 19 19 19 19
19 19 19 19 19 19 19 23 23
23 19 19 19 19 19 19 19 19
19 19 19 23 23 23 19 19 19
19 19 19 19 19 19 19 19 19
19 19 19 19 23 23 23 23 19
19 19 19 19 19 19 19 19 19
23 23 19 19 19 19 19 19 19
19 19 19 19 19 19 19 19 19
19 19 19 19 19 19 19 19 19
19 19 19 19 19 19 19 19 19
23 23 23 23 19 19 23 23 19
23 19 19 19 19 23 23 19 19
19 19 19 23 23 23 23 23 23
23 19 19 19 19 19 19 19 19
19 19 23 19 19 19 19 19 19
19 23 19 19 19 19 19 19 19
19 19 19 19 19 19 19 23 23
23 19 19 19 19 23 19 19 19
19 19 23 23 23 23 23 23 19
19 19 19 19 19 19 19 19 23
19 19 23 23 19 19 19 23 23
23 23 23 19 19 23 23 23 23
23 23 23 19 23 23 23 23 23
23 23 19 23 23 23 19 23 19
23 19 19 23 23 19 19 19 23
19 19 23 23 23 19 19 19 19
19 19 23 19 23 23 19 19 19
19 19 19 19 19 19 11 11 11
11 11 11 11 11 11 11 11 11
11 11 11 11 11 11 11 11 11
11 11 11 11 11 11 11 11 11
11 11 11 11 11 11 11 11 11
11 11 11 11 11 11 11 11 11
11 11 11 11 11 11 11 11 11
11 11 11 11 11 11 11 11 11
11 11 11 11 11 11 11 11 11
11 11 11 11 11 11 11 11 11
11 11 11 11 11 11 11 11 11
11 11 11 11 11 11 11 11 11
11 11 11 11 11 11 11 11 11
11 11 11 11 11 11 11 11 11
11 11 11 11 11 11 11 11 11
11 11 11 11 11 11 11 11 11
11 11 11 11 11 11 11 11 11
11 11 11 11 11 11 11 11 11
11 11 11 11 11 11 11 11 11
11 11 11 11 11 11 11 11 11
11 11 11 11 11 11 11 11 11
11 11 11 11 11 11 11 11 11
11 11 11 11 11 11 11 11 11
11 11 11 11 11 11 11 11 11
11 11 11 11 11 11 11 11 11
11 11 11 11 11 11 11 11 11
11 11 11 11 11 11 11 11 11
11 11 11 11 11 11 11 11 11
11 11 11 11 11 11 11 11 11
11 11 11 11 11 11 11 11 11
11 11 11 11 11 11 11 11 11
11 11 11 11 11 11 11 11 11
11 11 11 11 11 11 11 11 11
11 11 11 11 11 11 11 11 11
11 11 11 11 11 11 11 11 11
11 11 11 11 11 11 11 11 11
11 11 11 11 11 11 11 11 11
11 11 11 11 11 11 11 11 11
11 11 11 11 11 11 11 11 11
11 11 11 11 11 11 11 11 11
11 11 11 11 11 11 11 11 11
11 11 11 11 11 11 11 11 11
11 11 11 11 11 11 11 11 11
11 11 11 11 11 11 11 11 11
11 11 11 11 11 11 11 11 11
11 11 11 11 11 11 11 11 11
11 11 11 11 11 11 11 11 11
11 11 11 11 11 11 11 11 11
11 11 11 11 11 11 11 11 11
11 11 11 11 11 11 11 11 11
11 11 11 11 11 11 11 11 11
11 11 11 11 11 11 11 11 11
11 11 11 11 11 11 11 11 11
11 11 11 11 11 11 11 11 11
11 11 11 11 11 11 11 11 11
11 11 11 11 11 11 11 11 11
11 11 11 11 11 11 11 11 11
11 11 11 11 11 11 11 11 11
11 11 11 11 11 11 11 11 11
11 11 11 11 11 11 11 11 11
11 11 11 11 11 11 11 11 11
11 11 11 11 11 11 11 11 11
11 11 11 11 11 11 11 11 11
11 11 11 11 11 11 11 11 11
11 11 11 11 11 11 11 11 11
11 11 11 11 11 11 11 11 11
11 11 11 11 11 11 11 11 11
11 11 11 11 11 11 11 11 11
11 11 11 11 11 11 11 11 11
11 11 11 11 11 11 11 11 11
11 11 11 11 11 11 11 11 11
11 11 11 11 11 11 11 11 11
11 11 11 11 11 11 11 11 11
11 11 11 11 11 11 11 11 11
11 11 11 11 11 11 11 11 11
11 11 11 11 11 11 11 11 11
11 11 11 11 11 11 11 11 11
11 11 11 11 11 11 11 11 11
11 11 11 11 11 11 11 11 11
11 11 11 11 11 11 11 11 11
11 11 11 11 11 11 11 11 11
11 11 11 11 11 11 11 11 11
11 11 11 11 11 11 11 11 11
11 11 11 11 11 11 11 11 11
11 11 11 11 11 11 11 11 11
11 11 11 11 11 11 11 11 11
11 11 11 11 11 11 11 11 11
11 11 11 11 11 11 11 11 11
11 11 11 11 11 11 11 11 11
11 11 11 11 11 11 11 11 11
11 11 11 11 11 11 11 11 11
11 11 11 11 11 11 11 11 11
11 11 11 11 11 11 11 11 11
11 11 11 11 11 11 11 11 11
11 11 11 11 11 11 11 11 11
11 11 11 11 11 11 11 11 11
11 11 11 11 11 11 11 11 11
11 11 11 11 11 11 11 11 11
11 11 11 11 11 11 11 11 11
11 11 11 11 11 11 11 11 11
11 11 11 11 11 11 11 11 11
11 11 11 11 11 11 11 11 11
11 11 11 11 11 11 11 11 11
11 11 11 11 11 11 11 11 11
11 11 11 11 11 11 11 11 11
11 11 11 11 11 11 11 11 11
11 11 11 11 11 11 11 11 11
11 11 11 11 11 11 11 11 11
11 11 11 11 11 11 11 11 11
11 11 11 11 11 11 11 11 11
11 11 11 11 11 11 11 11 11
11 11 11 11 11 11 11 11 11
11 11 11 11 11 11 11 11 11
11 11 11 11 11 11 11 11 11
11 11 11 11 11 11 11 11 11
11 11 11 11 11 11 11 11 11
11 11 11 11 11 11 11 11 11
11 11 11 11 11 11 11 11 11
11 11 11 11 11 11 11 11 11
11 11 11 11 11 11 11 11 11