# vtk DataFile Version 3.0
vtk output
ASCII
DATASET POLYDATA
POINTS 5786 float
33.7728 -24.1106 -25.2495 27.2537 -22.8575 -26.0145 30.5251 -21.6036 -26.4799 
29.9679 -25.0506 -24.9554 37.4221 -22.4344 -25.8408 40.7877 -25.3633 -24.2273 
36.788 -26.7614 -23.9137 22.3725 -21.9792 -26.276 23.7927 -20.6647 -27.0181 
24.1038 -23.5276 -25.5046 34.1237 -19.8272 -26.8924 27.9338 -19.2655 -27.2231 
31.8977 -17.4605 -27.198 36.5977 -17.8862 -27.2597 40.8429 -19.9268 -26.6847 
18.9052 -20.7316 -26.6801 18.7733 -22.2143 -25.5687 22.4468 -18.4893 -27.6311 
26.622 -16.9359 -27.3688 19.2213 -19.4224 -27.4352 15.3265 -19.3561 -26.9291 
15.7367 -20.8473 -26.0215 17.7138 -17.6514 -27.713 21.9064 -16.3078 -27.6781 
14.0649 -17.7336 -27.374 15.5286 -15.9644 -27.6621 18.6903 -15.5613 -27.8217 
31.1112 -14.8606 -27.0844 26.3232 -14.3274 -27.2978 12.4058 -16.5896 -27.0983 
11.5879 -18.6734 -26.4789 18.356 -13.2013 -27.694 14.3774 -14.0981 -27.3181 
35.8838 -15.4316 -27.1939 40.419 -16.3643 -27.2167 22.0605 -13.824 -27.6369 
12.7967 -20.3286 -25.7628 43.9105 -28.3403 -22.5819 39.2676 -29.4908 -22.8972 
32.2305 -27.3812 -24.1861 20.972 -24.0166 -24.8872 26.0885 -25.4398 -24.8808 
9.87727 -17.3567 -26.2535 11.2481 -14.8515 -26.4588 16.4878 -23.2805 -24.234 
14.371 -21.746 -24.927 44.1609 -23.4053 -25.1199 47.5333 -20.7609 -25.6691 
45.525 -17.0656 -26.7121 35.415 -12.4449 -26.9606 39.711 -12.9803 -26.7765 
26.5899 -11.0524 -27.7035 22.3277 -11.3111 -27.8737 46.5937 -31.3137 -21.2689 
34.2018 -29.5848 -23.7728 40.7205 -32.3913 -22.3043 47.4922 -26.5189 -23.0889 
50.4972 -29.5121 -21.3461 53.6535 -27.0047 -21.4113 53.1873 -32.2485 -19.9082 
56.2231 -29.7482 -19.8171 27.4106 -27.6077 -24.6374 50.5669 -24.0288 -23.5834 
22.7398 -25.5618 -24.6773 18.809 -24.9058 -23.9691 11.6156 -21.2944 -24.5851 
12.5582 -22.8629 -23.1742 10.1512 -20.1254 -25.181 9.17577 -18.9028 -25.6585 
8.00566 -19.9983 -24.2695 9.80062 -21.5511 -23.5467 7.97082 -18.1346 -25.2656 
8.83157 -16.271 -25.5727 31.036 -11.8793 -27.2208 13.678 -11.7843 -26.8948 
9.75071 -14.2543 -25.4675 11.4495 -11.9963 -25.8744 20.6924 -9.18775 -28.1695 
16.6894 -10.9865 -27.5821 25.0115 -8.46414 -28.5525 9.62053 -11.9661 -24.5214 
8.28036 -15.0163 -24.6367 18.2923 -8.0105 -28.1083 24.3392 -5.63426 -29.4616 
20.9292 -5.53853 -29.0203 15.7876 -8.58757 -27.4389 13.4162 -8.89994 -26.4983 
15.3325 -5.64764 -27.3469 11.5051 -8.67192 -25.3117 13.1598 -5.56817 -26.2734 
31.9757 -30.6785 -24.136 21.6791 -26.6479 -24.2186 25.3427 -28.9223 -24.3809 
28.6942 -7.76144 -28.6052 28.1993 -5.34178 -29.5767 49.4443 -34.1606 -20.0715 
53.4906 -20.3473 -22.9553 51.2532 -16.7159 -24.6517 31.6155 -8.62138 -27.799 
15.1658 -24.6202 -22.4692 39.2571 -9.72967 -25.9837 35.3492 -9.32512 -26.822 
17.9874 -5.38136 -28.3314 44.5565 -13.1382 -26.433 58.6609 -31.8659 -18.1571 
55.8608 -34.5567 -18.3826 12.6464 -24.7527 -20.3207 10.3378 -23.3208 -21.0803 
7.15656 -17.0308 -24.6582 61.1889 -33.45 -15.9648 52.5569 -36.7105 -18.7079 
58.4385 -36.535 -16.4883 36.9764 -33.9335 -23.0583 45.3201 -35.7651 -20.8898 
58.8383 -26.3902 -18.8516 60.3452 -28.9164 -17.8295 62.7189 -25.3493 -15.3816 
62.9432 -29.4932 -15.3356 56.2937 -23.466 -20.6858 60.8348 -21.8808 -16.6855 
17.7539 -26.2634 -22.366 15.0861 -26.3596 -19.4735 37.4161 -19.0701 -14.8179 
32.6075 -19.2242 -14.7439 35.0667 -21.3725 -15.29 30.3156 -21.1491 -15.2997 
40.9421 -21.5309 -15.3163 32.8093 -23.3096 -15.3849 38.5865 -23.8263 -15.434 
8.27292 -21.9289 -21.8985 49.9589 -12.8774 -24.949 6.50454 -18.8049 -24.1343 
6.62254 -20.5917 -22.5181 34.6018 -17.1092 -14.1569 31.1583 -17.6479 -14.3333 
39.5567 -16.6514 -14.045 31.9919 -15.8138 -13.906 36.2121 -14.6816 -13.4563 
43.8616 -9.59811 -25.3089 49.8618 -9.02124 -23.1784 6.74207 -15.6835 -23.8691 
7.9337 -13.6185 -23.7594 5.6889 -17.5777 -23.7656 5.09934 -16.1121 -23.2366 
6.49161 -13.7954 -23.1525 32.4145 -5.195 -28.5086 35.6367 -6.34387 -26.8195 
9.85987 -7.55134 -24.1095 8.08359 -10.4963 -23.2708 24.0631 -2.77041 -30.2525 
27.5449 -2.84104 -30.4576 11.2731 -4.54683 -25.1669 14.7241 -3.0352 -27.253 
12.8888 -1.94297 -26.396 17.4286 -2.08711 -28.4511 20.7733 -2.51176 -29.5399 
9.19813 -2.63717 -24.3356 8.05373 -5.39128 -23.4203 20.7531 0.09297 -29.6946 
23.8484 -0.46027 -30.4324 15.1254 -0.15477 -27.6647 17.9553 1.13322 -28.809 
10.5255 -0.03229 -25.5708 29.549 -31.8193 -23.8279 58.5338 -18.9071 -18.8352 
56.6719 -15.629 -20.454 28.9213 -19.1751 -14.9639 39.0979 -6.85072 -25.3797 
12.6714 1.67969 -26.8394 20.7228 -28.0741 -22.6364 11.4722 -25.2442 -17.3609 
43.2352 -18.8866 -14.6965 43.2665 -6.75498 -24.2468 31.2329 -2.72723 -29.6138 
30.2719 -0.87727 -30.127 27.038 -0.77229 -30.7282 65.7848 -24.8972 -10.9634 
64.185 -20.2949 -12.1387 9.4333 -23.8653 -18.4637 28.637 -17.1154 -14.5523 
34.9122 -2.47743 -27.5315 36.1756 -4.03207 -26.6893 23.5292 1.13817 -30.1825 
21.1866 2.30323 -29.5229 24.2437 -30.3271 -22.4968 34.1099 -35.0681 -22.3434 
28.3353 -33.1426 -21.0401 36.5646 -25.5675 -14.7941 43.663 -26.5694 -14.6055 
44.2126 -24.0104 -15.255 27.8306 -22.7236 -15.0286 26.947 -20.7677 -15.4694 
9.6382 4.24663 -26.4246 15.3986 2.71813 -27.9748 12.5591 4.8786 -27.3559 
31.3849 -24.7769 -14.2506 55.2553 -12.2338 -21.1248 53.9992 -9.73494 -21.2185 
5.38565 -19.3373 -22.7579 33.6284 -0.80161 -28.308 7.01543 2.97446 -25.3778 
65.1914 -30.6084 -12.3821 62.3012 -16.9351 -14.3775 48.1251 -6.35431 -22.4179 
55.5636 -7.27152 -18.1309 53.0554 -5.83291 -18.9394 39.0735 -4.41996 -25.0945 
29.4685 0.3624 -30.1025 32.3978 0.52736 -28.6187 41.5175 -37.1826 -21.4591 
17.8285 -28.0842 -19.0245 49.7103 -25.5342 -14.4488 54.0601 -23.0652 -12.9167 
47.8501 -21.7588 -14.6037 55.6199 -26.971 -13.1052 50.5868 -28.7927 -13.839 
58.9101 -23.4907 -10.29 56.8051 -19.7444 -9.78086 52.669 -19.8511 -12.845 
39.9449 -27.5632 -13.5827 45.3502 -29.3001 -12.8901 60.6088 -20.247 -6.21753 
54.1107 -16.9454 -10.4587 58.3899 -17.2417 -4.61503 35.1233 -26.7153 -12.723 
60.4692 -14.6986 -16.7011 60.2728 -11.0813 -15.5755 63.1701 -12.8451 -12.2004 
49.0228 -18.0675 -13.5451 58.0797 -8.6677 -16.83 63.6308 -10.4646 -8.67255 
61.6324 -7.83808 -10.7635 24.1362 -21.3331 -15.3451 24.5642 -23.037 -13.4173 
27.6471 -24.3176 -12.877 45.1099 -16.064 -13.4591 25.1667 -19.0714 -15.7333 
7.6824 -22.5345 -19.3176 41.6223 -14.2493 -12.8375 46.7746 -13.4586 -11.7119 
50.4975 -15.0281 -11.5114 21.1882 -20.0345 -16.5611 21.3613 -21.8045 -13.541 
6.16061 -21.1894 -20.1173 21.7799 -18.1013 -17.313 18.8155 -18.9023 -18.132 
18.4678 -20.1186 -16.1672 25.5396 -16.6177 -15.642 29.1908 -14.6838 -14.4121 
18.9886 -16.9177 -18.6325 16.6239 -18.4118 -18.4252 32.7036 -14.013 -13.7171 
34.8376 -12.4674 -13.339 38.9084 -12.4277 -12.4346 4.46469 -18.0693 -22.6642 
3.5161 -16.6637 -22.5108 3.77667 -18.6362 -20.6522 4.91491 -19.8992 -20.6306 
22.6524 -16.2197 -17.0893 25.4814 -14.4937 -15.8252 4.20979 -14.0165 -22.8527 
2.48747 -17.1148 -21.3913 3.32996 -18.4447 -18.6027 5.23399 -20.614 -17.0862 
4.42994 -19.7438 -17.0878 21.8762 -14.4628 -17.4711 18.2386 -14.561 -18.9131 
15.8046 -16.5033 -19.4995 28.0752 -12.5912 -15.0966 31.3484 -12.4906 -14.1447 
2.16802 -15.3484 -22.5165 21.0593 -11.7575 -17.7751 15.5676 -14.3857 -19.3821 
17.6866 -12.4675 -18.7505 1.64314 -12.5459 -23.1186 0.61999 -14.5422 -22.3747 
1.42305 -16.0656 -21.691 24.7921 -12.3651 -16.3831 6.14453 -11.4609 -22.8186 
4.18994 -10.1954 -23.0311 -0.69281 -12.4416 -23.2018 -0.59789 -13.9928 -21.785 
0.77657 -15.6482 -20.8085 6.37417 -7.68052 -23.0138 38.7614 -2.25799 -24.9948 
-0.37752 -10.3256 -23.9962 1.38617 -8.37039 -23.9295 -1.71281 -6.65271 -24.9923 
-2.41089 -9.62371 -24.2687 -4.60613 -5.16365 -25.5723 -2.23753 -11.8343 -22.7953 
-4.45292 -8.49855 -23.9626 3.47086 -5.08651 -23.7783 5.36414 -2.29022 -23.7905 
-0.47985 -2.67725 -25.1615 -4.4719 -0.6314 -26.4084 6.94644 -0.78633 -24.0967 
0.69083 2.00353 -25.4276 -4.08321 4.08985 -26.9292 26.8743 0.98356 -30.2492 
3.67654 3.18947 -25.1951 24.937 2.30337 -29.7516 30.6299 1.47053 -28.8413 
28.4339 2.35672 -28.956 -1.07704 7.80702 -26.9303 -3.74315 7.5244 -27.3661 
18.0993 3.155 -28.7724 -8.41872 6.92808 -28.0114 -7.68663 0.96036 -26.9782 
-7.1538 10.09 -28.2435 -10.2769 13.5096 -28.2554 -10.6259 6.44659 -27.9516 
-12.1639 12.0143 -28.1436 2.28356 7.90131 -26.7285 16.0792 5.23849 -28.1697 
19.8847 4.24757 -28.89 23.1487 3.60038 -29.2028 -5.24635 11.6595 -28.1085 
5.8377 7.7073 -26.8774 -2.09647 11.9393 -27.9026 9.18936 7.52284 -27.2883 
5.89375 10.4089 -27.7366 1.88661 11.3431 -27.7853 -5.88321 15.7204 -28.178 
-8.17629 14.103 -28.3537 12.3121 7.51509 -27.719 -1.33623 14.6774 -28.3031 
9.17636 9.49994 -27.7617 7.42111 11.6645 -28.0122 3.11064 13.2534 -28.2213 
11.4485 9.86897 -27.8741 5.62394 14.1682 -28.2453 10.1667 12.1799 -27.986 
1.01829 16.1928 -28.3831 66.637 -19.8306 -7.45407 67.7094 -23.0726 -6.69544 
67.5065 -27.3209 -8.12815 65.1733 -15.9147 -8.26346 25.4249 -24.1637 -10.8758 
23.2021 -23.3962 -10.1478 27.7887 -25.177 -9.20634 25.1909 -24.4979 -7.02297 
19.0968 -21.2052 -11.0803 21.2451 -22.6152 -9.20633 14.3414 -15.9853 -19.1685 
15.0085 -17.608 -17.887 -9.71551 17.4716 -27.7893 38.4216 -38.3427 -20.0298 
60.3005 -27.696 -10.8654 55.8081 -30.4842 -12.6477 15.7318 -11.4308 -18.4571 
14.2418 -14.2509 -18.3893 -7.04442 -3.35793 -25.553 -10.0268 2.51862 -26.7646 
15.2367 7.89737 -27.9942 48.9574 -38.5876 -19.2785 62.4982 -23.744 -7.40331 
43.4473 -11.9521 -11.4482 2.06007 -17.0618 -19.762 18.5982 -9.75006 -18.1173 
-12.9637 18.3646 -27.1295 55.2542 -39.0347 -16.9117 65.0107 -13.1497 -6.26432 
66.9633 -18.3316 -3.12512 66.2793 -16.8493 -0.17866 55.0556 -14.4431 -7.11097 
16.7114 -19.3877 -15.221 42.8826 -4.50937 -23.5236 42.5837 -2.63022 -23.0534 
18.7734 6.25867 -28.3617 -3.4611 18.1403 -28.1409 67.9188 -21.2694 -2.83537 
68.4591 -25.0685 -3.76932 30.8574 -25.7948 -11.3523 6.47581 -21.8937 -16.2765 
36.8624 -0.75989 -26.0063 26.3757 3.44549 -28.7539 21.969 5.14711 -28.6267 
24.5989 4.48403 -28.5412 14.3694 10.2515 -27.9256 45.2025 -40.1877 -19.3467 
[...]
CELL_DATA 11571
SCALARS part float
LOOKUP_TABLE default
19 19 19 19 19 19 19 19 19 
19 19 19 19 19 19 19 19 19 
19 19 19 19 19 19 19 19 19 
19 19 19 19 19 19 19 19 19 
19 19 19 19 19 19 19 19 19 
19 19 19 19 19 19 19 23 23 
19 23 19 23 23 23 19 19 19 
23 23 23 19 19 19 19 19 19 
19 19 19 19 19 19 23 23 23 
23 19 19 19 19 19 19 19 19 
23 23 23 19 19 23 23 23 23 
19 23 23 23 23 19 23 19 19 
23 23 19 19 19 19 19 19 19 
19 19 19 19 19 19 19 19 19 
19 19 19 19 19 19 19 19 19 
19 19 19 19 19 19 19 19 23 
23 23 23 23 19 19 19 23 23 
19 19 19 19 19 23 23 23 19 
19 19 19 19 23 19 19 19 23 
23 19 23 23 23 19 19 19 23 
23 23 23 23 23 23 19 19 19 
19 19 19 19 19 19 19 19 23 
23 23 23 19 19 19 19 19 19 
23 23 19 19 19 23 23 19 19 
19 19 19 19 19 19 19 19 19 
19 19 19 19 19 19 19 19 19 
19 19 19 19 19 19 19 19 19 
19 19 19 19 19 19 19 19 19 
19 19 19 19 19 19 19 19 19 
19 19 19 19 23 23 19 19 19 
19 19 19 19 19 19 19 23 23 
23 19 19 19 19 19 19 19 19 
23 19 19 19 23 23 19 19 19 
19 19 19 19 19 19 23 23 23 
23 19 19 19 19 19 19 19 19 
19 19 19 19 23 23 23 19 19 
19 23 23 19 19 19 19 19 23 
19 19 19 19 19 19 19 19 19 
19 19 19 19 23 23 23 23 19 
19 19 19 19 19 19 19 19 19 
23 23 23 23 19 19 19 19 19 
23 23 19 19 19 19 19 19 19 
19 19 19 19 19 19 19 23 23 
23 19 19 19 19 19 23 23 19 
19 19 19 19 23 23 23 23 19 
19 19 19 23 19 19 19 19 19 
19 19 19 19 19 19 19 23 23 
23 23 23 23 19 19 19 23 19 
19 23 23 23 23 23 19 19 19 
19 19 19 19 19 19 19 23 23 
19 19 19 19 23 23 23 23 19 
19 19 19 19 19 23 23 23 23 
23 19 19 19 19 23 23 23 19 
23 23 23 23 23 23 23 19 19 
19 19 19 19 19 19 19 19 19 
19 19 19 19 19 19 19 19 19 
19 19 19 19 19 19 19 19 19 
19 19 19 19 19 19 19 19 19 
19 19 19 19 19 19 19 19 19 
19 19 19 19 19 19 19 19 19 
19 19 19 19 19 19 19 19 19 
19 19 19 19 19 19 19 19 19 
19 19 19 19 19 19 19 19 19 
19 19 19 19 19 23 23 23 23 
23 23 23 23 23 19 19 19 19 
23 19 19 23 19 19 19 23 19 
19 19 19 19 19 19 19 19 23 
23 19 19 19 19 19 19 23 23 
19 19 23 19 19 23 23 19 19 
19 19 19 19 19 19 23 23 19 
19 19 19 19 19 19 19 19 19 
19 23 23 23 19 19 19 19 19 
19 19 19 19 19 23 23 23 23 
19 19 19 19 19 19 23 23 23 
19 19 23 19 19 19 19 19 23 
23 23 19 19 19 19 19 19 19 
19 19 19 19 23 23 23 23 23 
19 23 23 23 23 23 23 23 23 
23 23 19 19 19 19 23 23 19 
19 19 19 19 19 19 19 19 19 
19 19 19 19 19 19 19 19 19 
19 19 19 19 19 19 19 19 23 
23 23 23 23 19 19 19 19 19 
19 19 19 19 19 19 19 19 19 
19 19 19 19 19 19 23 23 19 
19 19 19 19 19 19 19 19 19 
19 19 19 19 19 19 19 23 23 
19 19 23 23 19 19 19 19 19 
23 23 23 23 23 19 19 19 19 
19 19 19 19 19 19 19 19 19 
19 23 23 19 19 19 19 19 19 
19 19 19 19 23 23 19 19 19 
19 23 23 23 23 19 19 23 23 
19 19 19 19 19 19 23 23 23 
23 23 23 23 23 23 19 19 19 
19 19 23 23 23 23 23 23 23 
19 23 23 23 19 23 23 19 19 
19 19 19 19 19 19 19 19 19 
19 19 19 19 19 23 23 23 23 
23 19 19 19 19 19 19 19 19 
19 19 19 19 19 19 19 19 19 
19 23 23 23 23 19 19 19 19 
19 19 23 19 19 19 19 19 23 
23 23 23 19 19 19 19 23 23 
19 19 19 19 19 19 19 23 23 
23 23 23 23 23 23 19 19 19 
19 23 23 23 23 23 23 19 19 
19 19 19 19 19 19 19 19 19 
19 19 19 19 19 19 19 19 19 
23 19 19 19 19 19 19 19 19 
19 19 19 19 19 19 19 19 19 
19 19 19 19 19 23 23 23 23 
23 23 23 23 23 23 19 23 23 
19 19 19 19 19 19 19 19 19 
19 19 19 19 23 23 19 19 19 
19 19 19 19 19 19 19 23 23 
23 23 23 19 19 19 19 19 19 
19 19 19 19 19 19 19 19 19 
19 19 19 19 19 23 23 19 19 
19 19 19 19 19 19 19 19 19 
19 19 19 19 23 23 23 23 19 
19 23 23 23 23 23 23 23 19 
19 23 23 23 23 23 19 19 19 
19 19 19 19 19 23 23 23 23 
23 23 23 23 23 19 19 19 19 
19 19 19 19 23 23 23 19 19 
19 19 23 23 19 19 19 19 19 
19 19 19 19 19 19 19 19 19 
19 19 19 19 19 19 19 19 19 
19 19 19 19 19 19 19 19 19 
19 19 19 19 19 19 19 19 19 
19 19 19 19 19 23 19 19 19 
23 23 23 19 19 23 23 23 19 
19 19 19 19 19 19 19 19 19 
19 19 19 19 19 23 23 23 23 
19 19 19 19 19 19 19 19 19 
23 23 23 19 23 23 19 19 19 
19 19 19 19 19 23 23 19 19 
23 23 23 19 19 19 19 19 19 
19 19 19 19 19 19 19 19 19 
19 23 19 19 19 19 19 19 19 
19 19 23 19 23 23 23 23 23 
19 19 19 19 19 19 19 19 19 
19 23 23 23 23 23 23 23 19 
19 19 19 23 23 19 23 19 19 
19 19 19 19 19 19 19 23 23 
23 23 23 23 23 23 19 19 19 
23 23 23 19 19 19 19 19 23 
23 19 19 19 19 19 23 23 23 
23 19 19 19 19 19 19 19 23 
23 19 23 19 23 23 23 19 19 
19 19 19 19 19 23 23 23 19 
19 19 19 19 19 19 19 19 19 
19 19 19 19 19 19 23 23 19 
19 19 19 19 19 19 19 19 19 
19 19 19 19 19 19 19 23 19 
23 23 23 19 19 19 19 19 19 
23 23 19 23 23 23 19 19 19 
19 19 19 19 19 19 19 19 19 
19 19 19 19 19 19 19 19 19 
19 19 19 19 23 23 19 19 19 
19 19 19 19 23 23 23 23 19 
19 19 19 19 19 23 19 19 19 
19 19 19 23 23 19 19 19 23 
23 23 23 23 19 19 19 19 23 
23 23 23 23 19 19 19 19 19 
19 19 19 19 23 23 23 19 19 
19 19 19 19 19 19 19 19 19 
19 19 23 23 19 23 23 23 19 
19 19 19 19 23 19 19 19 19 
19 19 19 19 19 19 19 23 19 
23 23 23 23 23 19 19 19 23 
19 19 19 19 19 19 19 23 23 
19 19 19 19 19 19 19 19 19 
19 19 19 19 19 19 19 23 19 
19 23 23 23 19 19 23 23 23 
23 23 23 23 23 23 23 23 23 
23 23 23 23 23 23 19 23 23 
23 23 23 19 19 23 19 19 19 
19 19 19 19 19 19 19 19 19 
19 19 19 19 19 19 19 19 19 
19 19 19 19 19 19 19 19 19 
23 23 23 19 19 19 23 23 23 
23 19 19 19 19 19 19 19 19 
19 19 23 23 23 23 23 23 23 
23 23 19 19 19 19 19 19 19 
19 19 19 19 19 19 23 23 23 
23 23 23 19 19 19 19 19 19 
19 19 19 19 19 19 19 19 23 
23 19 19 19 19 19 19 19 19 
23 19 19 19 19 19 19 19 23 
23 19 19 19 19 19 23 23 19 
19 19 19 19 19 19 19 19 19 
19 19 23 23 23 23 23 23 23 
23 23 23 23 19 19 19 19 19 
19 19 19 19 19 19 19 19 19 
19 23 23 23 19 19 19 19 19 
19 23 23 23 19 19 19 19 19 
19 19 19 23 23 23 19 19 19 
19 19 19 19 19 19 19 19 19 
19 19 19 19 19 19 19 19 19 
19 19 19 19 19 19 19 19 19 
19 19 19 19 19 19 19 19 19 
19 23 23 23 19 23 19 19 19 
19 19 19 19 19 19 19 19 19 
19 19 19 19 19 19 19 23 23 
19 19 19 19 19 23 23 23 19 
19 19 19 19 19 19 19 19 19 
19 19 19 19 23 23 23 23 19 
19 19 19 19 23 23 19 19 19 
19 23 19 19 19 19 19 19 19 
23 23 23 19 23 23 19 19 23 
23 23 23 23 19 19 19 19 19 
19 19 19 19 19 19 19 23 19 
19 19 19 23 19 23 19 19 19 
19 19 19 19 19 19 23 23 23 
23 19 19 19 19 19 23 23 19 
23 23 23 23 23 19 19 19 19 
19 19 19 19 19 19 19 19 19 
19 19 19 19 19 19 19 19 19 
23 19 19 23 23 23 23 19 19 
23 23 23 19 19 19 19 19 19 
19 19 23 23 23 23 23 19 23 
23 19 19 19 19 19 19 19 19 
19 19 19 19 19 19 19 19 19 
19 23 23 19 19 19 19 23 19 
19 19 19 19 19 19 19 19 19 
19 19 19 19 19 23 23 23 19 
23 23 19 23 23 23 23 19 19 
19 19 19 19 19 19 19 19 19 
19 23 19 19 19 19 19 19 19 
19 19 19 19 23 23 23 23 23 
19 23 23 23 23 23 19 19 19 
19 19 19 19 19 19 23 19 19 
19 19 19 19 19 23 23 19 19 
19 19 23 23 23 23 23 19 19 
19 19 19 19 19 19 19 19 19 
19 19 19 19 23 23 23 23 23 
23 19 19 19 19 19 19 19 19 
23 23 19 19 19 23 23 23 23 
23 19 19 19 19 19 19 19 19 
19 19 19 19 19 19 19 19 19 
19 19 19 19 19 19 19 23 23 
19 19 23 23 23 23 23 23 23 
23 23 23 19 19 19 19 19 19 
19 19 19 19 19 19 19 23 23 
23 19 19 19 23 23 23 23 23 
23 23 19 19 19 19 19 19 19 
19 19 23 19 19 19 19 19 19 
19 19 19 19 23 23 23 19 19 
19 19 19 19 19 19 19 19 19 
19 19 19 19 19 19 19 19 19 
19 19 19 19 19 19 19 19 19 
19 19 19 19 23 23 23 19 19 
19 19 23 23 23 23 23 23 23 
23 23 23 23 23 23 23 19 19 
19 19 19 19 19 19 19 23 23 
23 23 23 23 23 23 23 23 23 
23 23 23 23 23 19 19 19 19 
19 19 19 19 19 19 23 23 23 
23 23 23 23 23 19 19 19 19 
19 19 19 19 19 19 19 19 23 
23 23 19 19 19 19 23 23 23 
23 23 19 19 19 23 19 19 19 
19 19 19 19 19 19 19 19 19 
19 19 19 19 19 23 19 19 19 
19 19 19 23 23 23 23 23 23 
23 23 23 19 19 19 23 23 19 
19 19 19 19 19 19 19 19 19 
19 23 23 19 19 19 19 19 19 
23 19 19 19 23 23 19 19 19 
19 19 19 19 23 19 23 23 23 
23 23 19 23 23 19 23 23 19 
19 19 19 19 19 19 19 19 19 
19 23 19 19 19 19 23 23 19 
19 23 19 19 19 19 19 19 19 
19 19 19 19 19 19 19 23 19 
19 19 23 23 19 23 23 23 19 
19 19 19 19 19 19 19 19 19 
19 19 19 19 19 19 23 23 23 
23 23 19 19 23 23 23 19 19 
19 23 23 23 23 23 19 19 19 
19 19 19 19 19 19 19 19 19 
19 19 19 19 19 19 19 19 19 
19 19 19 19 19 19 19 23 23 
23 23 23 23 23 19 19 19 19 
19 19 19 19 19 19 19 23 23 
23 19 19 19 19 19 19 19 19 
19 19 19 19 19 19 19 19 19 
19 19 23 19 19 19 19 19 19 
19 19 23 23 19 23 23 19 19 
19 19 19 19 19 19 19 19 19 
23 19 19 19 19 19 19 19 19 
23 19 19 19 19 19 19 19 19 
19 23 23 23 19 23 23 23 23 
23 23 23 19 19 19 19 19 19 
19 19 19 19 19 19 23 23 19 
19 19 19 19 19 19 19 23 23 
23 19 19 19 19 19 19 19 19 
19 19 23 23 23 23 19 19 19 
23 23 19 19 19 19 19 19 19 
19 19 19 19 19 19 23 19 19 
19 19 19 19 19 23 19 19 19 
23 23 23 23 23 19 19 19 19 
19 19 19 19 19 19 19 19 19 
19 19 19 19 19 19 19 23 23 
23 19 19 19 19 19 19 19 19 
23 19 19 19 19 19 19 19 19 
19 19 23 23 23 23 19 23 23 
19 23 23 19 19 19 19 19 19 
19 19 19 19 19 19 19 19 19 
19 19 19 23 23 23 19 23 23 
19 19 19 19 19 19 23 23 23 
23 23 23 19 19 19 19 19 19 
19 19 19 23 19 19 19 19 19 
19 19 19 23 23 19 19 19 19 
19 19 19 19 19 19 19 23 23 
23 23 23 23 19 19 19 19 19 
19 19 19 19 19 19 19 19 19 
19 19 19 19 19 23 23 23 23 
23 23 23 23 23 23 23 23 23 
23 19 19 23 23 19 19 19 19 
19 19 19 19 19 19 23 23 23 
23 23 19 19 19 19 19 19 19 
23 23 19 23 23 23 19 19 19 
19 19 19 19 19 19 19 19 19 
19 19 19 23 23 23 19 23 23 
23 19 19 19 19 19 19 19 19 
19 23 23 23 23 23 23 23 23 
23 19 19 23 23 23 23 23 23 
23 23 23 23 19 19 23 19 23 
19 19 19 19 19 19 19 19 19 
19 23 23 23 23 19 19 19 23 
19 19 19 19 19 23 19 19 19 
19 19 23 23 19 19 19 23 23 
23 23 23 23 19 19 19 19 19 
19 19 19 19 19 19 19 19 19 
19 19 23 19 19 23 19 19 19 
19 19 19 19 19 19 19 19 23 
23 23 23 23 23 23 23 23 23 
23 19 19 23 23 19 19 19 19 
19 19 19 19 19 19 23 19 23 
23 23 23 23 23 23 23 23 23 
23 23 19 19 19 19 19 19 19 
19 19 19 23 23 19 19 23 23 
23 23 23 23 19 19 19 23 23 
23 19 19 19 19 19 19 19 19 
19 19 19 23 23 23 23 23 19 
19 19 19 19 19 19 23 19 19 
19 19 19 19 19 19 19 19 23 
23 23 23 19 19 23 23 23 19 
19 19 19 19 19 19 19 19 19 
19 19 23 23 19 19 19 19 19 
23 19 19 19 19 19 19 19 19 
19 19 19 19 19 19 23 19 19 
19 23 23 19 19 19 19 19 19 
19 19 19 19 19 19 19 19 19 
19 19 19 19 19 19 19 19 23 
23 19 19 19 19 19 19 19 19 
19 19 19 19 19 19 19 19 19 
19 19 19 19 23 23 23 23 23 
23 19 19 19 19 19 19 19 19 
19 19 19 19 19 19 19 19 19 
19 19 19 19 19 23 23 23 23 
23 19 19 19 19 19 19 19 19 
19 19 19 19 19 19 23 23 23 
23 23 19 19 19 23 23 19 19 
19 19 19 19 19 19 19 19 19 
19 19 23 23 23 23 23 23 23 
19 19 19 19 19 19 19 19 23 
23 19 19 19 19 19 19 19 19 
19 19 19 19 19 23 23 23 23 
23 23 23 23 23 23 23 23 23 
19 23 19 19 19 19 19 19 19 
19 19 19 19 19 19 23 23 19 
19 19 19 23 23 23 19 19 19 
19 19 19 19 19 19 19 23 23 
23 23 23 23 19 19 19 19 19 
19 19 19 19 19 19 19 23 23 
23 23 23 23 23 23 23 19 19 
19 19 19 19 19 19 19 19 19 
23 23 19 19 19 19 19 19 19 
19 19 19 19 23 23 19 23 23 
23 23 23 23 23 23 23 23 23 
19 19 19 19 19 19 19 19 23 
19 19 23 19 19 23 23 19 19 
19 19 19 19 19 19 19 19 19 
19 19 19 23 23 23 23 23 19 
19 19 19 23 23 23 23 23 23 
23 23 23 23 23 19 19 19 19 
19 19 19 19 19 19 19 19 23 
19 23 23 23 19 19 19 19 19 
19 19 19 19 19 19 19 19 19 
19 19 19 23 23 23 23 23 19 
19 19 19 19 19 19 19 19 19 
19 19 19 19 19 19 19 19 19 
19 19 23 19 19 19 19 19 19 
19 19 19 19 19 23 19 19 19 
19 19 19 19 19 19 19 19 19 
19 19 19 19 19 23 23 23 23 
23 23 19 19 19 19 19 19 19 
19 19 19 19 23 23 23 23 23 
19 19 19 19 19 19 19 19 19 
19 19 19 19 19 19 19 19 23 
23 23 23 23 23 23 19 19 19 
19 19 19 19 19 19 19 19 19 
19 19 19 19 19 23 23 19 19 
19 23 23 19 19 19 19 19 19 
19 19 19 19 19 19 19 19 19 
19 23 23 23 23 19 19 19 23 
23 23 19 19 19 19 19 19 19 
19 19 19 23 19 19 23 19 19 
19 19 19 19 19 23 23 23 23 
23 19 19 19 19 19 19 19 19 
19 19 19 23 19 23 23 23 23 
19 19 19 19 19 19 19 19 19 
19 19 19 19 19 23 23 23 23 
23 23 23 23 23 23 23 23 23 
19 19 19 19 19 19 19 19 19 
19 19 23 23 23 23 23 23 19 
19 23 23 23 19 19 19 19 19 
19 19 19 19 19 19 23 19 19 
23 19 19 19 19 19 19 19 19 
19 19 19 23 23 23 19 19 19 
19 19 23 23 19 19 19 19 19 
19 19 19 19 19 19 19 19 23 
19 19 23 23 23 23 23 23 23 
23 19 19 19 19 19 19 19 19 
19 19 19 19 23 23 19 19 19 
19 19 19 19 19 19 19 19 19 
19 23 23 23 23 23 23 23 23 
23 19 19 23 19 19 19 19 19 
19 19 19 19 19 19 19 19 19 
19 23 23 23 23 19 19 23 23 
19 19 19 19 23 23 19 19 19 
19 19 19 19 19 19 19 19 19 
19 19 19 23 23 23 23 23 23 
23 23 19 19 19 19 19 19 19 
19 19 19 23 23 19 19 19 19 
19 23 23 23 19 19 19 19 19 
19 19 19 19 19 23 23 23 19 
19 19 19 19 19 19 19 19 19 
19 19 23 19 23 23 19 19 19 
19 23 23 23 19 19 19 19 19 
19 19 19 19 19 19 23 23 23 
19 19 23 19 19 19 19 19 19 
23 23 23 19 23 19 19 19 23 
23 23 23 23 23 23 23 19 19 
19 19 19 19 19 19 19 19 19 
19 23 23 23 23 23 23 23 19 
19 19 19 19 19 19 19 19 19 
19 23 23 23 23 23 23 23 19 
19 19 19 19 19 19 19 19 19 
19 19 19 23 23 23 23 23 23 
23 23 23 23 23 19 19 19 19 
19 19 19 19 19 19 19 23 23 
23 23 19 19 19 19 19 19 19 
23 23 19 19 19 19 19 19 19 
19 19 19 19 19 23 23 23 19 
23 19 19 23 23 23 19 19 19 
19 19 19 19 19 19 19 19 19 
23 23 23 23 19 19 19 19 19 
19 19 19 19 19 19 23 19 19 
19 19 19 19 19 19 19 19 19 
19 19 19 19 19 19 19 19 19 
19 19 19 19 19 19 19 19 19 
23 23 23 23 19 19 19 19 19 
19 19 19 19 19 19 19 19 23 
23 23 19 23 23 23 19 23 19 
19 19 19 19 19 19 19 23 19 
19 19 19 23 23 19 19 19 19 
19 19 23 19 19 23 23 19 19 
19 19 19 19 19 19 19 19 23 
23 23 23 19 19 19 19 19 19 
19 19 19 19 19 19 19 19 23 
23 19 19 19 23 23 23 23 23 
19 19 19 19 19 19 19 19 19 
19 19 19 23 23 23 23 23 19 
19 19 19 23 23 23 23 19 19 
19 19 19 19 19 19 19 19 19 
19 19 19 19 23 23 23 23 23 
23 23 19 23 19 19 19 19 19 
19 23 23 19 23 19 23 19 19 
19 19 19 19 19 19 19 19 19 
19 19 19 23 23 23 19 19 19 
19 19 19 19 19 19 19 23 23 
23 19 19 23 23 19 19 19 19 
19 19 19 19 19 23 23 23 23 
23 19 19 19 19 19 19 19 19 
23 19 19 19 23 19 19 19 19 
19 19 19 19 19 19 19 19 19 
19 19 19 19 19 19 19 19 19 
19 19 19 19 23 23 19 19 23 
23 23 23 23 19 19 19 19 19 
19 19 19 19 19 23 23 23 19 
19 19 19 19 19 19 19 19 19 
19 23 23 23 23 23 23 23 23 
23 23 23 19 19 19 19 19 19 
19 19 19 23 23 23 23 23 23 
23 23 23 23 19 19 19 19 19 
19 19 19 19 23 23 23 23 23 
23 19 19 19 19 19 19 23 23 
23 19 19 19 19 19 19 19 19 
23 23 23 23 23 23 23 19 23 
23 23 23 23 23 23 19 19 19 
19 19 19 19 19 19 19 19 19 
19 19 19 19 19 19 19 19 19 
19 19 19 19 19 23 23 23 23 
19 23 23 23 19 19 19 19 19 
19 19 23 23 23 23 23 23 19 
19 23 19 19 19 19 19 19 19 
23 23 23 23 23 23 23 19 19 
19 19 19 19 23 23 23 23 23 
19 19 19 19 19 19 19 19 19 
19 19 23 23 23 19 19 19 19 
23 23 19 19 19 19 19 19 19 
23 23 23 23 23 23 23 19 19 
19 19 19 23 19 19 19 19 19 
19 19 19 19 19 19 19 23 23 
23 23 23 23 23 23 23 23 23 
23 19 19 19 19 19 19 19 19 
19 19 23 23 23 23 23 19 19 
19 19 19 19 19 19 19 19 19 
23 23 23 23 23 23 23 23 23 
19 19 19 19 19 19 19 19 19 
19 19 23 23 23 23 23 23 23 
23 23 23 19 19 19 19 19 19 
19 19 19 23 23 23 19 19 19 
19 19 19 19 23 23 23 23 19 
19 19 19 19 19 19 19 19 19 
23 23 23 19 19 19 19 23 23 
23 23 19 23 23 23 23 23 23 
23 23 23 23 23 23 23 19 19 
19 19 19 19 19 19 19 19 19 
19 19 19 19 19 19 19 19 19 
19 23 23 23 23 23 23 19 19 
19 19 19 19 19 19 19 19 19 
23 23 23 19 19 19 19 19 19 
19 19 19 19 19 23 23 23 23 
19 19 19 19 19 19 19 19 19 
19 23 23 19 19 19 19 19 19 
19 19 19 23 23 23 19 19 19 
19 19 19 19 19 19 19 23 19 
23 23 23 23 23 23 23 23 19 
19 19 19 19 19 19 19 19 19 
19 19 19 19 19 23 23 23 23 
19 19 19 23 23 23 23 19 19 
19 19 19 19 19 19 19 19 19 
19 19 19 19 19 23 23 23 23 
23 23 23 23 23 19 19 19 19 
19 19 19 19 19 19 19 19 19 
19 19 19 19 19 19 23 23 23 
19 19 19 19 23 23 19 19 19 
19 19 19 19 19 19 19 19 23 
23 23 23 23 19 19 19 19 19 
19 19 19 19 19 19 19 19 19 
19 19 19 19 23 19 19 19 19 
19 19 19 19 23 23 23 23 19 
19 19 19 19 19 19 19 19 19 
19 23 19 23 23 19 19 19 19 
19 19 19 19 19 19 19 19 23 
23 19 19 23 23 23 23 23 23 
23 19 19 19 19 19 19 19 19 
19 19 23 23 23 23 23 23 19 
23 19 19 19 23 23 23 19 19 
19 19 19 23 23 23 19 19 19 
19 19 19 19 19 19 19 19 19 
19 19 19 19 19 19 19 23 23 
19 23 23 23 23 19 19 19 19 
19 19 19 19 19 23 19 19 19 
19 19 19 19 23 23 19 19 19 
23 23 23 19 19 19 19 19 19 
19 19 19 19 23 23 19 19 19 
19 19 19 19 19 23 23 23 23 
23 23 19 19 19 19 19 19 19 
19 19 23 23 23 19 19 23 19 
19 19 19 19 19 23 23 23 23 
19 19 19 19 19 19 19 19 19 
19 19 19 19 23 19 19 19 19 
19 19 19 19 23 19 19 23 23 
23 19 19 19 19 19 19 19 19 
19 19 23 19 19 19 19 19 19 
19 19 19 19 19 19 23 19 19 
19 19 19 19 19 19 19 19 19 
19 19 19 19 19 19 19 19 19 
19 19 19 19 19 23 19 19 19 
19 19 19 23 23 23 23 23 19 
19 19 19 23 19 23 23 19 19 
19 19 19 19 19 19 23 23 19 
19 19 19 19 19 19 19 19 23 
19 19 19 19 19 19 19 23 23 
23 19 19 19 19 19 19 19 19 
19 19 19 19 23 23 23 19 19 
19 19 19 19 19 19 19 19 19 
23 23 23 19 19 19 19 19 19 
19 19 19 19 19 19 19 19 19 
19 23 23 23 23 19 19 19 19 
19 19 19 19 19 19 23 23 19 
19 19 19 19 19 19 19 19 19 
19 19 19 19 19 19 19 19 19 
19 19 19 19 19 19 19 19 19 
19 19 19 19 19 19 23 23 23 
23 19 19 23 23 19 23 19 19 
19 19 23 23 19 19 19 19 19 
23 23 23 23 23 23 23 19 19 
19 19 19 19 19 19 19 19 23 
19 19 19 19 19 19 19 23 19 
19 19 19 19 19 19 19 19 19 
19 19 19 19 23 23 23 19 19 
19 19 23 19 19 19 19 19 23 
23 23 23 23 23 19 19 19 19 
19 19 19 19 19 23 19 19 23 
23 19 19 19 23 23 23 23 23 
19 19 23 23 23 23 23 23 23 
19 23 23 23 23 23 23 23 19 
23 23 23 19 23 19 23 19 19 
23 23 19 19 19 23 19 19 23 
23 23 19 19 19 19 19 19 23 
19 23 23 19 19 19 19 19 19 
19 19 19 11 11 11 11 11 11 
11 11 11 11 11 11 11 11 11 
11 11 11 11 11 11 11 11 11 
11 11 11 11 11 11 11 11 11 
11 11 11 11 11 11 11 11 11 
11 11 11 11 11 11 11 11 11 
11 11 11 11 11 11 11 11 11 
11 11 11 11 11 11 11 11 11 
11 11 11 11 11 11 11 11 11 
11 11 11 11 11 11 11 11 11 
11 11 11 11 11 11 11 11 11 
11 11 11 11 11 11 11 11 11 
11 11 11 11 11 11 11 11 11 
11 11 11 11 11 11 11 11 11 
11 11 11 11 11 11 11 11 11 
11 11 11 11 11 11 11 11 11 
11 11 11 11 11 11 11 11 11 
11 11 11 11 11 11 11 11 11 
11 11 11 11 11 11 11 11 11 
11 11 11 11 11 11 11 11 11 
11 11 11 11 11 11 11 11 11 
11 11 11 11 11 11 11 11 11 
11 11 11 11 11 11 11 11 11 
11 11 11 11 11 11 11 11 11 
11 11 11 11 11 11 11 11 11 
11 11 11 11 11 11 11 11 11 
11 11 11 11 11 11 11 11 11 
11 11 11 11 11 11 11 11 11 
11 11 11 11 11 11 11 11 11 
11 11 11 11 11 11 11 11 11 
11 11 11 11 11 11 11 11 11 
11 11 11 11 11 11 11 11 11 
11 11 11 11 11 11 11 11 11 
11 11 11 11 11 11 11 11 11 
11 11 11 11 11 11 11 11 11 
11 11 11 11 11 11 11 11 11 
11 11 11 11 11 11 11 11 11 
11 11 11 11 11 11 11 11 11 
11 11 11 11 11 11 11 11 11 
11 11 11 11 11 11 11 11 11 
11 11 11 11 11 11 11 11 11 
11 11 11 11 11 11 11 11 11 
11 11 11 11 11 11 11 11 11 
11 11 11 11 11 11 11 11 11 
11 11 11 11 11 11 11 11 11 
11 11 11 11 11 11 11 11 11 
11 11 11 11 11 11 11 11 11 
11 11 11 11 11 11 11 11 11 
11 11 11 11 11 11 11 11 11 
11 11 11 11 11 11 11 11 11 
11 11 11 11 11 11 11 11 11 
11 11 11 11 11 11 11 11 11 
11 11 11 11 11 11 11 11 11 
11 11 11 11 11 11 11 11 11 
11 11 11 11 11 11 11 11 11 
11 11 11 11 11 11 11 11 11 
11 11 11 11 11 11 11 11 11 
11 11 11 11 11 11 11 11 11 
11 11 11 11 11 11 11 11 11 
11 11 11 11 11 11 11 11 11 
11 11 11 11 11 11 11 11 11 
11 11 11 11 11 11 11 11 11 
11 11 11 11 11 11 11 11 11 
11 11 11 11 11 11 11 11 11 
11 11 11 11 11 11 11 11 11 
11 11 11 11 11 11 11 11 11 
11 11 11 11 11 11 11 11 11 
11 11 11 11 11 11 11 11 11 
11 11 11 11 11 11 11 11 11 
11 11 11 11 11 11 11 11 11 
11 11 11 11 11 11 11 11 11 
11 11 11 11 11 11 11 11 11 
11 11 11 11 11 11 11 11 11 
11 11 11 11 11 11 11 11 11 
11 11 11 11 11 11 11 11 11 
11 11 11 11 11 11 11 11 11 
11 11 11 11 11 11 11 11 11 
11 11 11 11 11 11 11 11 11 
11 11 11 11 11 11 11 11 11 
11 11 11 11 11 11 11 11 11 
11 11 11 11 11 11 11 11 11 
11 11 11 11 11 11 11 11 11 
11 11 11 11 11 11 11 11 11 
11 11 11 11 11 11 11 11 11 
11 11 11 11 11 11 11 11 11 
11 11 11 11 11 11 11 11 11 
11 11 11 11 11 11 11 11 11 
11 11 11 11 11 11 11 11 11 
11 11 11 11 11 11 11 11 11 
11 11 11 11 11 11 11 11 11 
11 11 11 11 11 11 11 11 11 
11 11 11 11 11 11 11 11 11 
11 11 11 11 11 11 11 11 11 