# vtk DataFile Version 3.0
vtk output
ASCII
DATASET POLYDATA
POINTS 5787 float
55.5985 -2.8977 -31.6867 48.8288 -4.80852 -32.1547 51.3302 0.2486 -30.653 
52.5544 -7.51491 -32.7859 57.444 3.183 -28.8804 61.7395 -1.20946 -30.7349 
59.3827 -6.74567 -32.8736 43.1116 -6.56564 -32.1618 44.1666 -2.7425 -31.6728 
45.6418 -8.58439 -32.4289 53.127 6.36767 -27.549 47.4811 3.18058 -29.5252 
49.6501 9.20886 -26.0485 53.7021 11.3561 -24.2716 58.1292 10.1668 -24.1533 
38.7074 -6.269 -31.8813 38.9341 -9.52494 -31.7015 41.6206 0.86933 -30.6264 
44.6839 6.73819 -27.7802 38.6326 -3.24488 -31.6928 34.1025 -5.38584 -31.4229 
34.9724 -8.37946 -31.3488 36.136 -0.37588 -30.9041 39.7809 4.94584 -29.0041 
32.0614 -2.48043 -31.0178 32.9182 2.0172 -30.1506 36.1338 4.57416 -29.4292 
47.2045 12.8807 -23.7184 42.7556 11.1921 -25.5307 29.5642 -0.8121 -30.3054 
29.4166 -5.66616 -30.724 34.6427 9.01414 -28.0651 30.7288 5.1999 -29.1238 
51.5338 14.5481 -22.0211 55.7436 15.2856 -20.6488 38.581 9.82408 -27.1243 
31.3197 -8.71531 -30.7979 65.3875 -6.10632 -32.5281 62.3481 -11.0329 -34.041 
55.7579 -10.8336 -33.6615 42.1901 -11.8398 -32.1131 48.7112 -11.0915 -33.0384 
26.7533 -3.5252 -29.9612 27.2509 2.23108 -29.0646 36.4393 -13.0993 -30.9198 
33.4863 -10.994 -30.7062 62.7127 5.29197 -26.7412 63.1803 11.2172 -21.8509 
59.8532 15.6556 -18.9502 49.4286 18.147 -19.5854 53.4299 18.9286 -17.8644 
41.3164 16.6664 -23.4854 37.6715 14.4398 -25.8116 68.1592 -11.0793 -33.9835 
58.3883 -14.0709 -34.531 64.1015 -16.063 -35.0982 66.8878 0.19145 -29.2421 
70.386 -5.13447 -31.5226 71.136 1.38328 -27.3709 73.1219 -9.99993 -33.1366 
74.3745 -3.82624 -29.9345 51.257 -14.6017 -34.014 67.2057 6.49687 -24.5804 
45.042 -13.7745 -32.8309 39.936 -15.0879 -31.6805 30.0331 -11.2944 -30.0885 
31.3749 -14.1605 -29.5334 28.0219 -9.41537 -30.1135 26.4858 -7.16341 -30.044 
25.1599 -10.0539 -29.1018 27.7218 -12.6054 -29.1686 24.5687 -6.00575 -29.3087 
24.7784 -1.68485 -28.8823 45.4327 17.176 -21.4565 28.9244 9.17623 -28.031 
24.9105 2.69854 -28.0143 26.1519 7.61146 -27.5142 35.3278 17.1499 -25.7914 
32.0118 12.2009 -27.5786 38.9374 19.9178 -23.5895 23.5017 6.60149 -26.3521 
23.2106 0.51729 -27.5113 32.6511 17.8712 -26.2963 37.3907 23.3758 -23.1006 
34.4008 22.3415 -24.5599 30.23 15.7085 -26.8684 27.5745 13.8654 -26.7722 
28.9629 19.7146 -25.6676 24.9875 13.0034 -25.8988 26.4541 18.5897 -25.3042 
56.8635 -17.7835 -35.1118 44.3647 -16.8308 -32.9921 49.6883 -19.0633 -34.348 
41.7678 21.9758 -21.261 40.4977 24.7715 -20.8888 70.5511 -15.5044 -34.8955 
66.9079 12.0363 -19.563 63.4914 16.286 -16.8197 44.4871 21.6702 -19.6243 
35.0349 -16.5341 -29.9504 51.4488 22.3256 -15.5231 47.9039 21.8605 -17.577 
31.6222 21.3484 -25.3292 57.325 19.6213 -15.8793 76.9611 -8.01317 -31.343 
75.4609 -13.9504 -33.8907 31.4616 -17.9134 -27.9161 28.3408 -16.0317 -27.7373 
22.8445 -4.0378 -28.2455 79.3375 -11.3392 -31.691 72.8612 -19.1761 -35.2304 
77.6218 -17.4335 -33.9461 61.4593 -21.2539 -35.634 67.4858 -20.3538 -35.6661 
74.3761 2.51735 -25.3517 76.9151 -2.31297 -28.0561 76.7501 3.10195 -23.4405 
79.2164 -4.12537 -27.8788 70.7244 7.58088 -22.322 73.1635 8.78498 -19.8045 
38.9387 -18.5732 -30.9593 34.8547 -20.0439 -28.1914 52.5895 3.5283 -16.5299 
48.4287 -0.03427 -17.9927 52.5008 -1.85257 -20.6063 47.5978 -4.72117 -20.8597 
57.6704 1.79685 -19.5586 51.6227 -6.70626 -22.669 57.4172 -3.75585 -22.9847 
25.5521 -14.0742 -27.6988 60.8786 20.3505 -14.1231 22.7546 -8.15689 -28.3763 
23.1747 -12.027 -27.5375 48.3207 4.86511 -13.849 45.7328 1.62762 -15.8302 
51.9815 8.63434 -11.7545 44.9282 5.46438 -12.3884 47.4393 9.983 -9.2724 
55.1381 23.1065 -13.3387 59.1163 24.5102 -11.0411 21.4061 -1.57622 -26.9737 
21.8586 2.81678 -26.1906 21.025 -5.96675 -27.4685 19.3727 -3.3322 -26.4252 
19.9502 1.70611 -25.6923 43.8875 25.8959 -18.0374 46.9647 25.4358 -16.0637 
22.3472 13.4487 -24.4901 20.6351 7.87999 -24.7605 36.2879 26.5398 -22.0485 
39.136 27.3688 -20.3412 23.9129 18.73 -24.1742 27.8441 22.7456 -24.4411 
25.7119 23.1273 -23.6518 30.38 25.031 -23.7384 33.464 25.787 -23.1732 
21.147 19.8323 -22.7311 19.5501 15.1586 -23.1407 32.8493 28.4456 -21.4842 
35.4747 28.8044 -20.6579 27.9031 26.2603 -22.8854 30.3137 28.6093 -21.5981 
23.0162 24.1897 -22.343 54.7617 -22.2642 -35.0713 69.688 12.9365 -17.1405 
66.5451 16.8114 -14.4997 44.7398 -2.37005 -18.7512 50.0267 25.65 -13.8943 
25.402 27.3035 -21.8558 43.5104 -20.715 -32.3187 29.4218 -19.3751 -25.4166 
57.1095 7.34765 -14.6547 53.3678 26.2592 -11.7006 42.0785 28.2764 -18.035 
40.7047 29.9298 -17.6878 38.0923 29.3272 -19.3861 79.0944 2.73058 -21.4357 
74.9581 9.91505 -16.8005 26.7088 -17.559 -25.5312 42.968 1.0281 -15.8838 
44.9956 29.4977 -15.2337 46.5739 28.2434 -14.8589 34.8262 30.1995 -19.4735 
32.7467 30.624 -19.483 48.4366 -23.4187 -33.2506 58.7354 -25.9905 -34.8137 
52.8573 -26.8738 -32.9255 56.5098 -8.38352 -23.8182 63.1281 -5.80168 -24.5882 
62.1165 -0.53452 -22.2062 45.8079 -9.12751 -21.5993 43.7361 -6.16397 -20.7532 
22.6855 29.0305 -20.3618 27.9097 29.4029 -21.0456 25.4152 30.7752 -19.974 
50.7684 -10.6461 -22.2271 63.8583 20.8535 -12.0678 61.9849 23.9946 -10.4989 
21.1489 -9.9983 -27.0853 43.396 30.7987 -15.3787 19.6746 26.1819 -20.6256 
81.6444 -7.06209 -27.7852 71.559 14.2157 -13.9822 56.8686 27.3319 -9.64077 
61.8509 26.7009 -7.33187 59.8074 28.4325 -7.0446 49.0624 28.6258 -12.8848 
39.6847 30.924 -17.1533 41.9797 31.7331 -15.1923 64.4877 -25.0786 -35.5295 
38.8331 -22.3141 -28.9107 67.1914 -0.2493 -22.5622 68.8735 5.59267 -18.2484 
63.1441 5.2821 -17.8937 72.4029 -0.30475 -22.8677 69.4923 -5.98227 -25.5301 
72.8829 6.14252 -17.5731 68.6867 10.7 -12.5534 65.4953 9.63747 -14.1778 
60.322 -10.1597 -24.0252 65.4233 -10.1812 -24.9178 71.7965 11.1843 -10.7953 
64.2873 13.2955 -9.16807 67.2363 14.3651 -4.81971 55.3404 -12.0351 -21.9488 
68.8946 16.9828 -12.5557 66.7446 21.0597 -8.57867 69.9293 18.6887 -8.39732 
61.0768 10.8034 -12.2222 63.989 24.5877 -7.47744 68.5557 22.0548 -2.96368 
65.8021 24.9478 -2.40751 40.9265 -8.68656 -20.8582 41.9744 -11.9878 -19.7963 
46.0891 -12.714 -20.0827 56.0665 11.9605 -9.866 40.8601 -4.11693 -19.677 
24.2781 -15.7328 -25.4537 51.5515 13.0323 -7.70287 55.3945 15.5854 -5.97226 
59.7531 14.6599 -7.39878 37.2896 -7.29925 -21.1692 37.7542 -11.2179 -19.0827 
22.0606 -13.7839 -25.3448 37.1458 -3.29369 -20.5349 34.5978 -5.6036 -21.9884 
34.3181 -8.55772 -20.6727 39.8514 0.58785 -16.9191 41.8076 6.06227 -11.9567 
34.0341 -1.58474 -21.0153 32.1213 -5.33854 -21.9254 44.1505 9.32368 -9.3186 
44.9305 13.3237 -6.95263 48.0842 14.8261 -6.0083 19.3412 -7.86879 -26.3741 
17.3714 -5.53952 -25.6934 17.9957 -10.1048 -24.3038 20.0635 -11.8625 -25.0344 
37.1019 0.5655 -18.3709 38.7157 4.80069 -14.241 17.0751 0.1524 -25.4924 
15.8159 -7.61081 -24.437 16.6161 -10.9375 -21.9291 19.6756 -13.9986 -21.7989 
18.2236 -13.0289 -21.184 35.6854 3.8187 -16.9198 32.4454 2.83364 -19.425 
30.7449 -1.54001 -21.8492 39.8984 9.86782 -9.99328 42.3008 11.6779 -8.12132 
14.951 -3.67967 -25.3107 34.1072 8.83237 -14.6099 29.7061 2.40614 -20.3555 
31.2185 6.4932 -17.7127 13.1554 1.54681 -25.3699 12.436 -3.23744 -24.8538 
13.9824 -6.09162 -24.4074 37.3288 8.92733 -12.2063 18.3824 5.31307 -24.7289 
15.5025 6.47904 -24.6787 10.0381 0.29008 -25.2307 10.3249 -3.62181 -23.907 
12.5934 -6.39617 -23.1979 17.6022 11.0029 -23.7362 48.0556 31.0273 -12.2549 
10.0001 4.588 -25.522 11.7855 8.35957 -24.948 8.10874 9.83312 -25.0296 
7.26355 4.61828 -25.3166 4.76248 10.635 -24.4629 7.6042 -0.18455 -24.4216 
4.33007 4.73021 -24.2699 13.9961 13.5345 -23.6169 16.408 17.9899 -22.3137 
9.96366 15.5605 -23.6523 6.11308 16.8914 -23.2357 18.5622 20.8983 -21.7215 
12.4952 21.9963 -21.4794 8.3088 23.1195 -21.1706 37.4613 30.8798 -17.8204 
16.1384 24.83 -20.444 35.6458 31.5519 -17.5065 40.2845 32.1542 -15.1908 
38.3352 32.4137 -15.3512 13.4918 29.4643 -18.4483 10.4517 28.0047 -19.1304 
30.1434 30.6082 -20.047 4.58678 25.2272 -19.8074 2.83125 17.6761 -22.2951 
7.96233 30.3251 -17.8966 5.84308 33.775 -15.4778 1.41157 23.5894 -19.6554 
2.14629 30.2884 -16.3529 16.9236 30.8927 -18.0799 28.3193 32.072 -18.9799 
31.4097 32.0389 -18.3416 34.0221 32.2274 -17.1869 11.1693 33.6042 -16.3438 
20.1232 31.905 -18.2644 14.664 35.2842 -15.5496 22.9276 32.7384 -18.4605 
21.0131 35.4254 -16.3749 18.0576 35.6608 -15.7228 12.3229 39.3437 -12.9777 
8.99952 35.9846 -14.882 25.4059 33.5107 -18.1009 16.385 39.5015 -13.1116 
23.3059 35.0468 -16.9339 22.4675 37.3274 -14.956 19.6415 38.6129 -13.8798 
25.0345 35.8671 -16.08 21.6642 40.0505 -12.4561 24.4839 38.2697 -13.7647 
18.5922 41.7306 -11.3194 76.6328 10.8119 -13.4791 79.6288 5.91787 -16.7373 
82.1428 -1.76781 -22.3043 73.0653 15.7258 -9.07022 43.1034 -14.2528 -17.755 
40.0619 -14.1442 -16.5625 46.0212 -15.2852 -16.5662 42.3815 -16.082 -13.9883 
34.5835 -11.7458 -16.1623 37.3543 -13.8619 -15.1829 28.8868 -1.17447 -21.2799 
29.9214 -4.56449 -20.8338 8.40653 39.5292 -12.3049 61.3218 -29.81 -33.6391 
76.3735 -0.44154 -22.5352 74.1506 -6.7012 -25.9624 28.8296 7.34207 -17.3944 
27.9759 1.66966 -19.3922 1.96097 11.7246 -23.1091 0.27701 18.4942 -20.7136 
27.6366 34.4701 -16.92 69.7494 -24.0108 -35.593 75.6823 6.49032 -16.2847 
51.5759 16.6549 -4.76307 14.6346 -8.75051 -22.5013 31.3743 11.4572 -14.4902 
4.06746 37.9183 -11.8702 74.8461 -22.7344 -34.9277 70.8743 19.5565 -3.66427 
75.4695 14.5464 -6.82568 72.856 17.3861 -0.75529 62.6765 16.379 -3.68907 
31.8996 -8.17999 -19.1573 52.1221 28.9896 -10.6922 51.182 31.1949 -9.99132 
30.3423 33.5976 -16.9981 15.1551 42.8747 -10.5618 78.3659 10.6644 -10.3464 
81.5507 3.8649 -15.8675 50.1767 -13.7756 -19.409 21.6189 -15.6965 -21.9453 
46.0394 31.9286 -12.9627 36.5237 32.8504 -15.3488 32.8906 33.2851 -16.3463 
34.9913 33.3086 -15.3823 27.1468 36.6989 -14.8373 66.3933 -28.8048 -34.7352 
81.4158 -14.7912 -31.4439 79.0159 -0.38433 -20.963 77.4448 6.62008 -13.598 
74.2754 10.72 -9.79615 77.7442 -7.64519 -25.3677 70.3041 -10.2707 -26.0885 
28.3923 -2.70133 -18.9524 55.4579 29.5597 -8.47453 54.3092 31.3488 -7.57221 
[...]
CELL_DATA 11573
SCALARS part float
LOOKUP_TABLE default
19 19 19 19 19 19 19 19 19 
19 19 19 19 19 19 19 19 19 
19 19 19 19 19 19 19 19 19 
19 19 19 19 19 19 19 19 19 
19 19 19 19 19 19 19 19 19 
19 19 19 19 19 19 19 23 23 
19 23 19 23 23 23 19 19 19 
23 23 23 19 19 19 19 19 19 
19 19 19 19 19 19 23 23 23 
23 19 19 19 19 19 19 19 19 
23 23 23 19 19 23 23 23 23 
19 23 23 23 23 19 23 19 19 
23 23 19 19 19 19 19 19 19 
19 19 19 19 19 19 19 19 19 
19 19 19 19 19 19 19 19 19 
19 19 19 19 19 19 19 19 23 
23 23 23 23 19 19 19 23 23 
19 19 19 19 19 23 23 23 19 
19 19 19 19 23 19 19 19 23 
23 19 23 23 23 19 19 19 23 
23 23 23 23 23 23 19 19 19 
19 19 19 19 19 19 19 19 23 
23 23 23 19 19 19 19 19 19 
23 23 19 19 19 23 23 19 19 
19 19 19 19 19 19 19 19 19 
19 19 19 19 19 19 19 19 19 
19 19 19 19 19 19 19 19 19 
19 19 19 19 19 19 19 19 19 
19 19 19 19 19 19 19 19 19 
19 19 19 19 23 23 19 19 19 
19 19 19 19 19 19 19 23 23 
23 19 19 19 19 19 19 19 19 
23 19 19 19 23 23 19 19 19 
19 19 19 19 19 19 23 23 23 
23 19 19 19 19 19 19 19 19 
19 19 19 19 23 23 23 19 19 
19 23 23 19 19 19 19 19 23 
19 19 19 19 19 19 19 19 19 
19 19 19 19 23 23 23 23 19 
19 19 19 19 19 19 19 19 19 
23 23 23 23 19 19 19 19 19 
23 23 19 19 19 19 19 19 19 
19 19 19 19 19 19 19 23 23 
23 19 19 19 19 19 23 23 19 
19 19 19 19 23 23 23 23 19 
19 19 19 23 19 19 19 19 19 
19 19 19 19 19 19 19 23 23 
23 23 23 23 19 19 19 23 19 
19 23 23 23 23 23 19 19 19 
19 19 19 19 19 19 19 23 23 
19 19 19 19 23 23 23 23 19 
19 19 19 19 19 23 23 23 23 
23 19 19 19 19 23 23 23 19 
23 23 23 23 23 23 23 19 19 
19 19 19 19 19 19 19 19 19 
19 19 19 19 19 19 19 19 19 
19 19 19 19 19 19 19 19 19 
19 19 19 19 19 19 19 19 19 
19 19 19 19 19 19 19 19 19 
19 19 19 19 19 19 19 19 19 
19 19 19 19 19 19 19 19 19 
19 19 19 19 19 19 19 19 19 
19 19 19 19 19 19 19 19 19 
19 19 19 19 19 23 23 23 23 
23 23 23 23 23 19 19 19 19 
23 19 19 23 19 19 19 23 19 
19 19 19 19 19 19 19 19 23 
23 19 19 19 19 19 19 23 23 
19 19 23 19 19 23 23 19 19 
19 19 19 19 19 19 23 23 19 
19 19 19 19 19 19 19 19 19 
19 23 23 23 19 19 19 19 19 
19 19 19 19 19 23 23 23 23 
19 19 19 19 19 19 23 23 23 
19 19 23 19 19 19 19 19 23 
23 23 19 19 19 19 19 19 19 
19 19 19 19 23 23 23 23 23 
19 23 23 23 23 23 23 23 23 
23 23 19 19 19 19 23 23 19 
19 19 19 19 19 19 19 19 19 
19 19 19 19 19 19 19 19 19 
19 19 19 19 19 19 19 19 23 
23 23 23 23 19 19 19 19 19 
19 19 19 19 19 19 19 19 19 
19 19 19 19 19 19 23 23 19 
19 19 19 19 19 19 19 19 19 
19 19 19 19 19 19 19 23 23 
19 19 23 23 19 19 19 19 19 
23 23 23 23 23 19 19 19 19 
19 19 19 19 19 19 19 19 19 
19 23 23 19 19 19 19 19 19 
19 19 19 19 23 23 19 19 19 
19 23 23 23 23 19 19 23 23 
19 19 19 19 19 19 23 23 23 
23 23 23 23 23 23 19 19 19 
19 19 23 23 23 23 23 23 23 
19 23 23 23 19 23 23 19 19 
19 19 19 19 19 19 19 19 19 
19 19 19 19 19 23 23 23 23 
23 19 19 19 19 19 19 19 19 
19 19 19 19 19 19 19 19 19 
19 23 23 23 23 19 19 19 19 
19 19 23 19 19 19 19 19 23 
23 23 23 19 19 19 19 23 23 
19 19 19 19 19 19 19 23 23 
23 23 23 23 23 23 19 19 19 
19 23 23 23 23 23 23 19 19 
19 19 19 19 19 19 19 19 19 
19 19 19 19 19 19 19 19 19 
23 19 19 19 19 19 19 19 19 
19 19 19 19 19 19 19 19 19 
19 19 19 19 19 23 23 23 23 
23 23 23 23 23 23 19 23 23 
19 19 19 19 19 19 19 19 19 
19 19 19 19 23 23 19 19 19 
19 19 19 19 19 19 19 23 23 
23 23 23 19 19 19 19 19 19 
19 19 19 19 19 19 19 19 19 
19 19 19 19 19 23 23 19 19 
19 19 19 19 19 19 19 19 19 
19 19 19 19 23 23 23 23 19 
19 23 23 23 23 23 23 23 19 
19 23 23 23 23 23 19 19 19 
19 19 19 19 19 23 23 23 23 
23 23 23 23 23 19 19 19 19 
19 19 19 19 23 23 23 19 19 
19 19 23 23 19 19 19 19 19 
19 19 19 19 19 19 19 19 19 
19 19 19 19 19 19 19 19 19 
19 19 19 19 19 19 19 19 19 
19 19 19 19 19 19 19 19 19 
19 19 19 19 19 23 19 19 19 
23 23 23 19 19 23 23 23 19 
19 19 19 19 19 19 19 19 19 
19 19 19 19 19 23 23 23 23 
19 19 19 19 19 19 19 19 19 
23 23 23 19 23 23 19 19 19 
19 19 19 19 19 23 23 19 19 
23 23 23 19 19 19 19 19 19 
19 19 19 19 19 19 19 19 19 
19 23 19 19 19 19 19 19 19 
19 19 23 19 23 23 23 23 23 
19 19 19 19 19 19 19 19 19 
19 23 23 23 23 23 23 23 19 
19 19 19 23 23 19 23 19 19 
19 19 19 19 19 19 19 23 23 
23 23 23 23 23 23 19 19 19 
23 23 23 19 19 19 19 19 23 
23 19 19 19 19 19 23 23 23 
23 19 19 19 19 19 19 19 23 
23 19 23 19 23 23 23 19 19 
19 19 19 19 19 23 23 23 19 
19 19 19 19 19 19 19 19 19 
19 19 19 19 19 19 23 23 19 
19 19 19 19 19 19 19 19 19 
19 19 19 19 19 19 19 23 19 
23 23 23 19 19 19 19 19 19 
23 23 19 23 23 23 19 19 19 
19 19 19 19 19 19 19 19 19 
19 19 19 19 19 19 19 19 19 
19 19 19 19 23 23 19 19 19 
19 19 19 19 23 23 23 23 19 
19 19 19 19 19 23 19 19 19 
19 19 19 23 23 19 19 19 23 
23 23 23 23 19 19 19 19 23 
23 23 23 23 19 19 19 19 19 
19 19 19 19 23 23 23 19 19 
19 19 19 19 19 19 19 19 19 
19 19 23 23 19 23 23 23 19 
19 19 19 19 23 19 19 19 19 
19 19 19 19 19 19 19 23 19 
23 23 23 23 23 19 19 19 23 
19 19 19 19 19 19 19 23 23 
19 19 19 19 19 19 19 19 19 
19 19 19 19 19 19 19 23 19 
19 23 23 23 19 19 23 23 23 
23 23 23 23 23 23 23 23 23 
23 23 23 23 23 23 19 23 23 
23 23 23 19 19 23 19 19 19 
19 19 19 19 19 19 19 19 19 
19 19 19 19 19 19 19 19 19 
19 19 19 19 19 19 19 19 19 
23 23 23 19 19 19 23 23 23 
23 19 19 19 19 19 19 19 19 
19 19 23 23 23 23 23 23 23 
23 23 19 19 19 19 19 19 19 
19 19 19 19 19 19 23 23 23 
23 23 23 19 19 19 19 19 19 
19 19 19 19 19 19 19 19 23 
23 19 19 19 19 19 19 19 19 
23 19 19 19 19 19 19 19 23 
23 19 19 19 19 19 23 23 19 
19 19 19 19 19 19 19 19 19 
19 19 23 23 23 23 23 23 23 
23 23 23 23 19 19 19 19 19 
19 19 19 19 19 19 19 19 19 
19 23 23 23 19 19 19 19 19 
19 23 23 23 19 19 19 19 19 
19 19 19 23 23 23 19 19 19 
19 19 19 19 19 19 19 19 19 
19 19 19 19 19 19 19 19 19 
19 19 19 19 19 19 19 19 19 
19 19 19 19 19 19 19 19 19 
19 23 23 23 19 23 19 19 19 
19 19 19 19 19 19 19 19 19 
19 19 19 19 19 19 19 23 23 
19 19 19 19 19 23 23 23 19 
19 19 19 19 19 19 19 19 19 
19 19 19 19 23 23 23 23 19 
19 19 19 19 23 23 19 19 19 
19 23 19 19 19 19 19 19 19 
23 23 23 19 23 23 19 19 23 
23 23 23 23 19 19 19 19 19 
19 19 19 19 19 19 19 23 19 
19 19 19 23 19 23 19 19 19 
19 19 19 19 19 19 23 23 23 
23 19 19 19 19 19 23 23 19 
23 23 23 23 23 19 19 19 19 
19 19 19 19 19 19 19 19 19 
19 19 19 19 19 19 19 19 19 
23 19 19 23 23 23 23 19 19 
23 23 23 19 19 19 19 19 19 
19 19 23 23 23 23 23 19 23 
23 19 19 19 19 19 19 19 19 
19 19 19 19 19 19 19 19 19 
19 23 23 19 19 19 19 23 19 
19 19 19 19 19 19 19 19 19 
19 19 19 19 19 23 23 23 19 
23 23 19 23 23 23 23 19 19 
19 19 19 19 19 19 19 19 19 
19 23 19 19 19 19 19 19 19 
19 19 19 19 23 23 23 23 23 
19 23 23 23 23 23 19 19 19 
19 19 19 19 19 19 23 19 19 
19 19 19 19 19 23 23 19 19 
19 19 23 23 23 23 23 19 19 
19 19 19 19 19 19 19 19 19 
19 19 19 19 23 23 23 23 23 
23 19 19 19 19 19 19 19 19 
23 23 19 19 19 23 23 23 23 
23 19 19 19 19 19 19 19 19 
19 19 19 19 19 19 19 19 19 
19 19 19 19 19 19 19 23 23 
19 19 23 23 23 23 23 23 23 
23 23 23 19 19 19 19 19 19 
19 19 19 19 19 19 19 23 23 
23 19 19 19 23 23 23 23 23 
23 23 19 19 19 19 19 19 19 
19 19 23 19 19 19 19 19 19 
19 19 19 19 23 23 23 19 19 
19 19 19 19 19 19 19 19 19 
19 19 19 19 19 19 19 19 19 
19 19 19 19 19 19 19 19 19 
19 19 19 19 23 23 23 19 19 
19 19 23 23 23 23 23 23 23 
23 23 23 23 23 23 23 19 19 
19 19 19 19 19 19 19 23 23 
23 23 23 23 23 23 23 23 23 
23 23 23 23 23 19 19 19 19 
19 19 19 19 19 19 23 23 23 
23 23 23 23 23 19 19 19 19 
19 19 19 19 19 19 19 19 23 
23 23 19 19 19 19 23 23 23 
23 23 19 19 19 23 19 19 19 
19 19 19 19 19 19 19 19 19 
19 19 19 19 19 23 19 19 19 
19 19 19 23 23 23 23 23 23 
23 23 23 19 19 19 23 23 19 
19 19 19 19 19 19 19 19 19 
19 23 23 19 19 19 19 19 19 
23 19 19 19 23 23 19 19 19 
19 19 19 19 23 19 23 23 23 
23 23 19 23 23 19 23 23 19 
19 19 19 19 19 19 19 19 19 
19 23 19 19 19 19 23 23 19 
19 23 19 19 19 19 19 19 19 
19 19 19 19 19 19 19 23 19 
19 19 23 23 19 23 23 23 19 
19 19 19 19 19 19 19 19 19 
19 19 19 19 19 19 23 23 23 
23 23 19 19 23 23 23 19 19 
19 23 23 23 23 23 19 19 19 
19 19 19 19 19 19 19 19 19 
19 19 19 19 19 19 19 19 19 
19 19 19 19 19 19 19 23 23 
23 23 23 23 23 19 19 19 19 
19 19 19 19 19 19 19 23 23 
23 19 19 19 19 19 19 19 19 
19 19 19 19 19 19 19 19 19 
19 19 23 19 19 19 19 19 19 
19 19 23 23 19 23 23 19 19 
19 19 19 19 19 19 19 19 19 
23 19 19 19 19 19 19 19 19 
23 19 19 19 19 19 19 19 19 
19 23 23 23 19 23 23 23 23 
23 23 23 19 19 19 19 19 19 
19 19 19 19 19 19 23 23 19 
19 19 19 19 19 19 19 23 23 
23 19 19 19 19 19 19 19 19 
19 19 23 23 23 23 19 19 19 
23 23 19 19 19 19 19 19 19 
19 19 19 19 19 19 23 19 19 
19 19 19 19 19 23 19 19 19 
23 23 23 23 23 19 19 19 19 
19 19 19 19 19 19 19 19 19 
19 19 19 19 19 19 19 23 23 
23 19 19 19 19 19 19 19 19 
23 19 19 19 19 19 19 19 19 
19 19 23 23 23 23 19 23 23 
19 23 23 19 19 19 19 19 19 
19 19 19 19 19 19 19 19 19 
19 19 19 23 23 23 19 23 23 
19 19 19 19 19 19 23 23 23 
23 23 23 19 19 19 19 19 19 
19 19 19 23 19 19 19 19 19 
19 19 19 23 23 19 19 19 19 
19 19 19 19 19 19 19 23 23 
23 23 23 23 19 19 19 19 19 
19 19 19 19 19 19 19 19 19 
19 19 19 19 19 23 23 23 23 
23 23 23 23 23 23 23 23 23 
23 19 19 23 23 19 19 19 19 
19 19 19 19 19 19 23 23 23 
23 23 19 19 19 19 19 19 19 
23 23 19 23 23 23 19 19 19 
19 19 19 19 19 19 19 19 19 
19 19 19 23 23 23 19 23 23 
23 19 19 19 19 19 19 19 19 
19 23 23 23 23 23 23 23 23 
23 19 19 23 23 23 23 23 23 
23 23 23 23 19 19 23 19 23 
19 19 19 19 19 19 19 19 19 
19 23 23 23 23 19 19 19 23 
19 19 19 19 19 23 19 19 19 
19 19 23 23 19 19 19 23 23 
23 23 23 23 19 19 19 19 19 
19 19 19 19 19 19 19 19 19 
19 19 23 19 19 23 19 19 19 
19 19 19 19 19 19 19 19 23 
23 23 23 23 23 23 23 23 23 
23 19 19 23 23 19 19 19 19 
19 19 19 19 19 19 23 19 23 
23 23 23 23 23 23 23 23 23 
23 23 19 19 19 19 19 19 19 
19 19 19 23 23 19 19 23 23 
23 23 23 23 19 19 19 23 23 
23 19 19 19 19 19 19 19 19 
19 19 19 23 23 23 23 23 19 
19 19 19 19 19 19 23 19 19 
19 19 19 19 19 19 19 19 23 
23 23 23 19 19 23 23 23 19 
19 19 19 19 19 19 19 19 19 
19 19 23 23 19 19 19 19 19 
23 19 19 19 19 19 19 19 19 
19 19 19 19 19 19 23 19 19 
19 23 23 19 19 19 19 19 19 
19 19 19 19 19 19 19 19 19 
19 19 19 19 19 19 19 19 23 
23 19 19 19 19 19 19 19 19 
19 19 19 19 19 19 19 19 19 
19 19 19 19 23 23 23 23 23 
23 19 19 19 19 19 19 19 19 
19 19 19 19 19 19 19 19 19 
19 19 19 19 19 23 23 23 23 
23 19 19 19 19 19 19 19 19 
19 19 19 19 19 19 23 23 23 
23 23 19 19 19 23 23 19 19 
19 19 19 19 19 19 19 19 19 
19 19 23 23 23 23 23 23 23 
19 19 19 19 19 19 19 19 23 
23 19 19 19 19 19 19 19 19 
19 19 19 19 19 23 23 23 23 
23 23 23 23 23 23 23 23 23 
19 23 19 19 19 19 19 19 19 
19 19 19 19 19 19 23 23 19 
19 19 19 23 23 23 19 19 19 
19 19 19 19 19 19 19 23 23 
23 23 23 23 19 19 19 19 19 
19 19 19 19 19 19 19 23 23 
23 23 23 23 23 23 23 19 19 
19 19 19 19 19 19 19 19 19 
23 23 19 19 19 19 19 19 19 
19 19 19 19 23 23 19 23 23 
23 23 23 23 23 23 23 23 23 
19 19 19 19 19 19 19 19 23 
19 19 23 19 19 23 23 19 19 
19 19 19 19 19 19 19 19 19 
19 19 19 23 23 23 23 23 19 
19 19 19 23 23 23 23 23 23 
23 23 23 23 23 19 19 19 19 
19 19 19 19 19 19 19 19 23 
19 23 23 23 19 19 19 19 19 
19 19 19 19 19 19 19 19 19 
19 19 19 23 23 23 23 23 19 
19 19 19 19 19 19 19 19 19 
19 19 19 19 19 19 19 19 19 
19 19 23 19 19 19 19 19 19 
19 19 19 19 19 23 19 19 19 
19 19 19 19 19 19 19 19 19 
19 19 19 19 19 23 23 23 23 
23 23 19 19 19 19 19 19 19 
19 19 19 19 23 23 23 23 23 
19 19 19 19 19 19 19 19 19 
19 19 19 19 19 19 19 19 23 
23 23 23 23 23 23 19 19 19 
19 19 19 19 19 19 19 19 19 
19 19 19 19 19 23 23 19 19 
19 23 23 19 19 19 19 19 19 
19 19 19 19 19 19 19 19 19 
19 23 23 23 23 19 19 19 23 
23 23 19 19 19 19 19 19 19 
19 19 19 23 19 19 23 19 19 
19 19 19 19 19 23 23 23 23 
23 19 19 19 19 19 19 19 19 
19 19 19 23 19 23 23 23 23 
19 19 19 19 19 19 19 19 19 
19 19 19 19 19 23 23 23 23 
23 23 23 23 23 23 23 23 23 
19 19 19 19 19 19 19 19 19 
19 19 23 23 23 23 23 23 19 
19 23 23 23 19 19 19 19 19 
19 19 19 19 19 19 23 19 19 
23 19 19 19 19 19 19 19 19 
19 19 19 23 23 23 19 19 19 
19 19 23 23 19 19 19 19 19 
19 19 19 19 19 19 19 19 23 
19 19 23 23 23 23 23 23 23 
23 19 19 19 19 19 19 19 19 
19 19 19 19 23 23 19 19 19 
19 19 19 19 19 19 19 19 19 
19 23 23 23 23 23 23 23 23 
23 19 19 23 19 19 19 19 19 
19 19 19 19 19 19 19 19 19 
19 23 23 23 23 19 19 23 23 
19 19 19 19 23 23 19 19 19 
19 19 19 19 19 19 19 19 19 
19 19 19 23 23 23 23 23 23 
23 23 19 19 19 19 19 19 19 
19 19 19 23 23 19 19 19 19 
19 23 23 23 19 19 19 19 19 
19 19 19 19 19 23 23 23 19 
19 19 19 19 19 19 19 19 19 
19 19 23 19 23 23 19 19 19 
19 23 23 23 19 19 19 19 19 
19 19 19 19 19 19 23 23 23 
19 19 23 19 19 19 19 19 19 
23 23 23 19 23 19 19 19 23 
23 23 23 23 23 23 23 19 19 
19 19 19 19 19 19 19 19 19 
19 23 23 23 23 23 23 23 19 
19 19 19 19 19 19 19 19 19 
19 23 23 23 23 23 23 23 19 
19 19 19 19 19 19 19 19 19 
19 19 19 23 23 23 23 23 23 
23 23 23 23 23 19 19 19 19 
19 19 19 19 19 19 19 23 23 
23 23 19 19 19 19 19 19 19 
23 23 19 19 19 19 19 19 19 
19 19 19 19 19 23 23 23 19 
23 19 19 23 23 23 19 19 19 
19 19 19 19 19 19 19 19 19 
23 23 23 23 19 19 19 19 19 
19 19 19 19 19 19 23 19 19 
19 19 19 19 19 19 19 19 19 
19 19 19 19 19 19 19 19 19 
19 19 19 19 19 19 19 19 19 
23 23 23 23 19 19 19 19 19 
19 19 19 19 19 19 19 19 23 
23 23 19 23 23 23 19 23 19 
19 19 19 19 19 19 19 23 19 
19 19 19 23 23 19 19 19 19 
19 19 23 19 19 23 23 19 19 
19 19 19 19 19 19 19 19 23 
23 23 23 19 19 19 19 19 19 
19 19 19 19 19 19 19 19 23 
23 19 19 19 23 23 23 23 23 
19 19 19 19 19 19 19 19 19 
19 19 19 23 23 23 23 23 19 
19 19 19 23 23 23 23 19 19 
19 19 19 19 19 19 19 19 19 
19 19 19 19 23 23 23 23 23 
23 23 19 23 19 19 19 19 19 
19 23 23 19 23 19 23 19 19 
19 19 19 19 19 19 19 19 19 
19 19 19 23 23 23 19 19 19 
19 19 19 19 19 19 19 23 23 
23 19 19 23 23 19 19 19 19 
19 19 19 19 19 23 23 23 23 
23 19 19 19 19 19 19 19 19 
23 19 19 19 23 19 19 19 19 
19 19 19 19 19 19 19 19 19 
19 19 19 19 19 19 19 19 19 
19 19 19 19 23 23 19 19 23 
23 23 23 23 19 19 19 19 19 
19 19 19 19 19 23 23 23 19 
19 19 19 19 19 19 19 19 19 
19 23 23 23 23 23 23 23 23 
23 23 23 19 19 19 19 19 19 
19 19 19 23 23 23 23 23 23 
23 23 23 23 19 19 19 19 19 
19 19 19 19 23 23 23 23 23 
23 19 19 19 19 19 19 23 23 
23 19 19 19 19 19 19 19 19 
23 23 23 23 23 23 23 19 23 
23 23 23 23 23 23 19 19 19 
19 19 19 19 19 19 19 19 19 
19 19 19 19 19 19 19 19 19 
19 19 19 19 19 23 23 23 23 
19 23 23 23 19 19 19 19 19 
19 19 23 23 23 23 23 23 19 
19 23 19 19 19 19 19 19 19 
23 23 23 23 23 23 23 19 19 
19 19 19 19 23 23 23 23 23 
19 19 19 19 19 19 19 19 19 
19 19 23 23 23 19 19 19 19 
23 23 19 19 19 19 19 19 19 
23 23 23 23 23 23 23 19 19 
19 19 19 23 19 19 19 19 19 
19 19 19 19 19 19 19 23 23 
23 23 23 23 23 23 23 23 23 
23 19 19 19 19 19 19 19 19 
19 19 23 23 23 23 23 19 19 
19 19 19 19 19 19 19 19 19 
23 23 23 23 23 23 23 23 23 
19 19 19 19 19 19 19 19 19 
19 19 23 23 23 23 23 23 23 
23 23 23 19 19 19 19 19 19 
19 19 19 23 23 23 19 19 19 
19 19 19 19 23 23 23 23 19 
19 19 19 19 19 19 19 19 19 
23 23 23 19 19 19 19 23 23 
23 23 19 23 23 23 23 23 23 
23 23 23 23 23 23 23 19 19 
19 19 19 19 19 19 19 19 19 
19 19 19 19 19 19 19 19 19 
19 23 23 23 23 23 23 19 19 
19 19 19 19 19 19 19 19 19 
23 23 23 19 19 19 19 19 19 
19 19 19 19 19 23 23 23 23 
19 19 19 19 19 19 19 19 19 
19 23 23 19 19 19 19 19 19 
19 19 19 23 23 23 19 19 19 
19 19 19 19 19 19 19 23 19 
23 23 23 23 23 23 23 23 19 
19 19 19 19 19 19 19 19 19 
19 19 19 19 19 23 23 23 23 
19 19 19 23 23 23 23 19 19 
19 19 19 19 19 19 19 19 19 
19 19 19 19 19 23 23 23 23 
23 23 23 23 23 19 19 19 19 
19 19 19 19 19 19 19 19 19 
19 19 19 19 19 19 23 23 23 
19 19 19 19 23 23 19 19 19 
19 19 19 19 19 19 19 19 23 
23 23 23 23 19 19 19 19 19 
19 19 19 19 19 19 19 19 19 
19 19 19 19 23 19 19 19 19 
19 19 19 19 23 23 23 23 19 
19 19 19 19 19 19 19 19 19 
19 23 19 23 23 19 19 19 19 
19 19 19 19 19 19 19 19 23 
23 19 19 23 23 23 23 23 23 
23 19 19 19 19 19 19 19 19 
19 19 23 23 23 23 23 23 19 
23 19 19 19 23 23 23 19 19 
19 19 19 23 23 23 19 19 19 
19 19 19 19 19 19 19 19 19 
19 19 19 19 19 19 19 23 23 
19 23 23 23 23 19 19 19 19 
19 19 19 19 19 23 19 19 19 
19 19 19 19 23 23 19 19 19 
23 23 23 19 19 19 19 19 19 
19 19 19 19 23 23 19 19 19 
19 19 19 19 19 23 23 23 23 
23 23 19 19 19 19 19 19 19 
19 19 23 23 23 19 19 23 19 
19 19 19 19 19 23 23 23 23 
19 19 19 19 19 19 19 19 19 
19 19 19 19 23 19 19 19 19 
19 19 19 19 23 19 19 23 23 
23 19 19 19 19 19 19 19 19 
19 19 23 19 19 19 19 19 19 
19 19 19 19 19 19 23 19 19 
19 19 19 19 19 19 19 19 19 
19 19 19 19 19 19 19 19 19 
19 19 19 19 19 23 19 19 19 
19 19 19 23 23 23 23 23 19 
19 19 19 23 19 23 23 19 19 
19 19 19 19 19 19 23 23 19 
19 19 19 19 19 19 19 19 23 
19 19 19 19 19 19 19 23 23 
23 19 19 19 19 19 19 19 19 
19 19 19 19 23 23 23 19 19 
19 19 19 19 19 19 19 19 19 
23 23 23 19 19 19 19 19 19 
19 19 19 19 19 19 19 19 19 
19 23 23 23 23 19 19 19 19 
19 19 19 19 19 19 23 23 19 
19 19 19 19 19 19 19 19 19 
19 19 19 19 19 19 19 19 19 
19 19 19 19 19 19 19 19 19 
19 19 19 19 19 19 23 23 23 
23 19 19 23 23 19 23 19 19 
19 19 23 23 19 19 19 19 19 
23 23 23 23 23 23 23 19 19 
19 19 19 19 19 19 19 19 23 
19 19 19 19 19 19 19 23 19 
19 19 19 19 19 19 19 19 19 
19 19 19 19 23 23 23 19 19 
19 19 23 19 19 19 19 19 23 
23 23 23 23 23 19 19 19 19 
19 19 19 19 19 23 19 19 23 
23 19 19 19 23 23 23 23 23 
19 19 23 23 23 23 23 23 23 
19 23 23 23 23 23 23 23 19 
23 23 23 19 23 19 23 19 19 
23 23 19 19 19 23 19 19 23 
23 23 19 19 19 19 19 19 23 
19 23 23 19 19 19 19 19 19 
19 19 19 11 11 11 11 11 11 
11 11 11 11 11 11 11 11 11 
11 11 11 11 11 11 11 11 11 
11 11 11 11 11 11 11 11 11 
11 11 11 11 11 11 11 11 11 
11 11 11 11 11 11 11 11 11 
11 11 11 11 11 11 11 11 11 
11 11 11 11 11 11 11 11 11 
11 11 11 11 11 11 11 11 11 
11 11 11 11 11 11 11 11 11 
11 11 11 11 11 11 11 11 11 
11 11 11 11 11 11 11 11 11 
11 11 11 11 11 11 11 11 11 
11 11 11 11 11 11 11 11 11 
11 11 11 11 11 11 11 11 11 
11 11 11 11 11 11 11 11 11 
11 11 11 11 11 11 11 11 11 
11 11 11 11 11 11 11 11 11 
11 11 11 11 11 11 11 11 11 
11 11 11 11 11 11 11 11 11 
11 11 11 11 11 11 11 11 11 
11 11 11 11 11 11 11 11 11 
11 11 11 11 11 11 11 11 11 
11 11 11 11 11 11 11 11 11 
11 11 11 11 11 11 11 11 11 
11 11 11 11 11 11 11 11 11 
11 11 11 11 11 11 11 11 11 
11 11 11 11 11 11 11 11 11 
11 11 11 11 11 11 11 11 11 
11 11 11 11 11 11 11 11 11 
11 11 11 11 11 11 11 11 11 
11 11 11 11 11 11 11 11 11 
11 11 11 11 11 11 11 11 11 
11 11 11 11 11 11 11 11 11 
11 11 11 11 11 11 11 11 11 
11 11 11 11 11 11 11 11 11 
11 11 11 11 11 11 11 11 11 
11 11 11 11 11 11 11 11 11 
11 11 11 11 11 11 11 11 11 
11 11 11 11 11 11 11 11 11 
11 11 11 11 11 11 11 11 11 
11 11 11 11 11 11 11 11 11 
11 11 11 11 11 11 11 11 11 
11 11 11 11 11 11 11 11 11 
11 11 11 11 11 11 11 11 11 
11 11 11 11 11 11 11 11 11 
11 11 11 11 11 11 11 11 11 
11 11 11 11 11 11 11 11 11 
11 11 11 11 11 11 11 11 11 
11 11 11 11 11 11 11 11 11 
11 11 11 11 11 11 11 11 11 
11 11 11 11 11 11 11 11 11 
11 11 11 11 11 11 11 11 11 
11 11 11 11 11 11 11 11 11 
11 11 11 11 11 11 11 11 11 
11 11 11 11 11 11 11 11 11 
11 11 11 11 11 11 11 11 11 
11 11 11 11 11 11 11 11 11 
11 11 11 11 11 11 11 11 11 
11 11 11 11 11 11 11 11 11 
11 11 11 11 11 11 11 11 11 
11 11 11 11 11 11 11 11 11 
11 11 11 11 11 11 11 11 11 
11 11 11 11 11 11 11 11 11 
11 11 11 11 11 11 11 11 11 
11 11 11 11 11 11 11 11 11 
11 11 11 11 11 11 11 11 11 
11 11 11 11 11 11 11 11 11 
11 11 11 11 11 11 11 11 11 
11 11 11 11 11 11 11 11 11 
11 11 11 11 11 11 11 11 11 
11 11 11 11 11 11 11 11 11 
11 11 11 11 11 11 11 11 11 
11 11 11 11 11 11 11 11 11 
11 11 11 11 11 11 11 11 11 
11 11 11 11 11 11 11 11 11 
11 11 11 11 11 11 11 11 11 
11 11 11 11 11 11 11 11 11 
11 11 11 11 11 11 11 11 11 
11 11 11 11 11 11 11 11 11 
11 11 11 11 11 11 11 11 11 
11 11 11 11 11 11 11 11 11 
11 11 11 11 11 11 11 11 11 
11 11 11 11 11 11 11 11 11 
11 11 11 11 11 11 11 11 11 
11 11 11 11 11 11 11 11 11 
11 11 11 11 11 11 11 11 11 
11 11 11 11 11 11 11 11 11 
11 11 11 11 11 11 11 11 11 
11 11 11 11 11 11 11 11 11 
11 11 11 11 11 11 11 11 11 
11 11 11 11 11 11 11 11 11 
11 11 11 11 11 11 11 11 11 