# vtk DataFile Version 3.0
vtk output
ASCII
DATASET POLYDATA
POINTS 5784 float
40.1459 -10.8534 -32.063 37.1042 -9.26325 -31.6094 40.0569 -6.67165 -30.4101 
37.3803 -12.8387 -32.7523 43.5732 -7.99859 -30.1924 42.9076 -13.3122 -32.4626 
39.9109 -15.3432 -33.5364 34.3089 -8.42418 -31.2561 36.128 -5.80923 -30.4218 
34.6341 -11.0134 -31.9854 43.7017 -3.68947 -28.0875 39.923 -3.0948 -28.7194 
43.8302 -0.52158 -26.0779 46.771 -1.38866 -25.34 47.7134 -5.02975 -26.64 
32.366 -6.55748 -30.6844 31.4438 -9.35531 -31.2408 36.3868 -2.26804 -28.9339 
40.3392 0.12125 -26.7496 33.3598 -4.10065 -29.9917 29.9865 -4.3571 -30.0765 
29.6014 -7.09747 -30.651 32.9465 -1.19291 -28.8923 37.0795 1.01904 -27.157 
29.5343 -1.51663 -29.2852 31.6754 1.53352 -27.941 34.7845 2.21699 -27.1701 
44.7775 2.33462 -23.5119 41.5215 3.4835 -24.3616 28.1592 0.31454 -28.6414 
26.5302 -3.41685 -29.827 35.5594 5.89294 -25.4294 31.1646 4.52259 -26.7258 
47.8716 1.02161 -22.6978 50.0852 -1.55213 -22.5732 38.4699 4.65957 -25.0625 
27.0735 -6.364 -30.402 42.2139 -18.4242 -34.0412 39.5767 -19.5279 -34.5732 
37.3927 -16.4728 -33.8254 32.2787 -12.2986 -32.0792 34.9785 -14.0195 -32.9239 
24.9047 -1.28192 -29.1627 27.1365 3.06684 -27.4664 29.106 -11.4436 -31.4041 
27.9018 -8.87168 -30.8065 46.448 -10.7913 -30.1289 50.3029 -8.984 -26.9619 
51.9263 -5.07409 -23.0036 49.2433 3.5326 -19.583 51.645 0.97603 -19.0854 
43.5219 7.81976 -21.5609 40.0019 8.41255 -23.1323 41.6754 -22.7781 -34.842 
37.4443 -19.6128 -34.643 39.0008 -23.3928 -35.207 45.286 -16.5354 -32.6676 
44.3957 -21.452 -34.0696 47.4897 -19.5824 -32.7165 43.9105 -25.4279 -34.5826 
46.5632 -23.9933 -33.8666 34.9783 -17.2786 -33.9614 48.815 -14.1997 -30.3815 
32.9462 -14.6335 -32.9073 30.423 -13.9668 -32.278 25.3884 -8.25401 -30.5407 
25.5868 -10.9954 -30.8092 24.3131 -6.24376 -30.2633 23.6284 -4.1143 -29.9052 
21.5729 -6.3798 -30.014 23.1565 -8.94125 -30.3631 22.1335 -2.98626 -29.4673 
23.5386 0.34344 -28.3959 46.3853 5.52115 -20.6077 31.1399 8.24512 -25.2172 
24.9834 3.76912 -26.9821 27.9313 7.66511 -25.4353 39.5898 11.8791 -22.1702 
34.911 9.52774 -24.2655 43.6165 11.9005 -20.3271 24.717 7.25345 -25.2873 
22.4814 2.1627 -27.3748 37.7771 13.9932 -22.1039 44.2222 15.844 -18.7264 
41.1961 16.9391 -19.8911 34.8127 13.291 -22.9375 31.6293 12.7414 -23.3886 
35.0557 17.4814 -21.3007 28.6006 12.7944 -23.2841 32.02 17.5158 -21.5108 
36.1912 -21.2783 -35.0091 32.0007 -16.4721 -33.3605 33.5679 -19.5624 -34.4558 
46.8121 11.429 -18.321 47.4382 14.6194 -16.8735 41.5452 -26.5849 -35.0355 
52.2952 -12.6464 -27.4205 53.6645 -8.7379 -23.4972 48.5205 8.98339 -17.5898 
27.3932 -13.7659 -31.5434 52.9423 3.52415 -16.0155 50.7802 6.28283 -16.6045 
38.2564 17.6572 -20.6298 53.5181 -2.21473 -19.1113 46.2415 -27.6655 -34.0564 
43.8879 -28.9181 -34.4514 24.5605 -14.1672 -30.8098 22.6536 -12.0466 -30.3043 
20.8658 -1.34216 -28.7181 46.3923 -31.3136 -33.4943 41.8392 -30.0677 -34.6839 
44.1742 -32.374 -33.811 37.1752 -25.2169 -35.4404 39.5491 -27.6634 -35.2736 
49.4471 -22.6211 -32.5835 48.3842 -26.1973 -33.4322 50.6406 -26.7022 -31.7728 
48.7051 -29.7775 -32.7916 50.8333 -17.6287 -30.5999 52.1512 -22.0821 -30.173 
29.1021 -16.2284 -32.5052 26.2734 -16.5202 -31.4873 42.3085 -12.3209 -23.7656 
38.7843 -12.3607 -24.7701 39.2421 -14.553 -26.7302 36.2129 -13.8258 -26.9539 
42.7859 -15.0955 -26.276 36.7289 -16.5335 -28.4603 39.8645 -17.5272 -28.6096 
20.7524 -9.94635 -29.9701 54.9284 -5.62407 -19.5471 19.6879 -4.58018 -29.5246 
19.0013 -7.90842 -29.6797 41.5814 -10.5653 -21.587 38.5925 -10.8801 -23.1302 
45.4641 -10.1094 -19.8695 40.39 -9.33625 -20.3419 44.5389 -7.9786 -17.3526 
54.6981 0.56057 -15.7872 56.2051 -2.95425 -15.6321 19.8903 0.64722 -27.7188 
21.6048 4.16707 -26.2988 18.3673 -2.73515 -28.8508 17.1592 -0.54557 -27.9672 
19.1237 3.49188 -26.4555 50.4547 12.4537 -14.7199 52.1447 9.10653 -14.0861 
25.6508 13.9887 -22.6608 21.8224 8.98456 -24.3709 44.7714 19.3408 -17.0895 
47.6655 17.8151 -15.5762 29.0597 18.6343 -21.1159 34.7445 20.8441 -20.0667 
32.2812 22.145 -19.8255 38.2017 21.7374 -19.0341 41.7218 20.6222 -18.2239 
25.8069 20.7787 -20.4909 22.7096 16.5741 -21.8242 41.8547 23.3477 -16.9489 
44.8137 21.83 -15.901 35.5636 24.1142 -18.7435 38.8741 25.0032 -17.5212 
29.0256 24.3185 -19.4112 34.7427 -23.2476 -35.1491 53.4314 -17.1892 -27.538 
54.63 -13.2326 -23.9512 36.1699 -11.6918 -25.2731 53.9089 6.16433 -13.5257 
32.5073 26.2216 -18.5723 30.8236 -18.856 -33.5879 22.3657 -15.1909 -29.9794 
46.0179 -12.9338 -22.6846 55.4482 3.34309 -13.1668 50.3091 15.9595 -13.7505 
49.8932 18.4997 -13.1474 47.5389 20.2277 -14.5977 51.1794 -31.9404 -29.7893 
53.0214 -27.3861 -28.5261 20.6138 -13.2689 -29.5949 37.0004 -9.85575 -23.031 
52.4888 13.8285 -11.8279 53.0123 11.2124 -12.262 44.4291 23.4447 -15.2779 
42.0325 25.2365 -15.8598 32.2811 -21.9821 -34.4273 35.5184 -27.0733 -35.1151 
33.2252 -25.6136 -34.6176 37.6045 -19.7964 -29.6072 40.7609 -21.5057 -30.0456 
42.8042 -18.4209 -28.3938 33.7445 -15.2175 -28.1352 34.097 -12.6919 -26.8981 
29.0684 29.0709 -18.4662 35.8996 26.9399 -17.7132 32.6533 29.3489 -17.8117 
34.897 -18.5371 -29.1139 55.7526 -9.76062 -20.0143 56.5516 -6.74695 -16.9557 
17.3952 -6.02558 -29.3067 51.848 16.5353 -11.483 24.9694 27.7321 -19.1583 
48.804 -33.9504 -31.5217 54.3765 -22.3677 -26.5666 56.7041 0.49319 -12.8051 
57.7185 -6.53837 -14.0006 57.8651 -2.83354 -12.0081 54.4349 8.63938 -11.5983 
49.2992 20.1628 -12.8271 51.0305 18.6821 -11.3217 37.7953 -28.996 -35.1977 
28.0291 -19.0094 -32.388 44.4614 -21.6368 -29.0028 48.2948 -21.4543 -27.2058 
46.2485 -17.34 -25.8148 46.3768 -25.2822 -29.5794 42.838 -25.0721 -30.5632 
49.9881 -25.5403 -27.6146 51.6672 -21.6337 -24.2964 50.0001 -18.052 -24.2089 
38.1457 -22.8566 -30.2053 39.864 -25.3195 -30.6525 52.708 -26.6568 -23.7941 
52.4933 -17.3678 -20.7618 54.2955 -22.8433 -18.822 35.8206 -21.9183 -29.6081 
55.1819 -17.8471 -24.3335 56.6959 -15.6134 -19.9945 56.4639 -21.8129 -22.0569 
49.5413 -14.6909 -21.6325 57.4601 -10.6432 -16.3119 58.5691 -21.0802 -16.8043 
59.1722 -15.5863 -13.9595 31.814 -12.6667 -27.3436 31.0097 -15.3389 -27.9028 
32.4724 -17.7153 -28.5321 49.0023 -11.1935 -18.6852 33.6147 -10.3136 -25.7091 
18.8355 -11.4076 -29.2428 48.4012 -8.19415 -16.016 51.5472 -9.69521 -15.156 
52.2347 -13.2208 -17.761 30.4078 -9.90913 -26.8166 29.0459 -13.08 -27.1448 
17.0972 -9.48399 -28.9585 31.8735 -7.48756 -25.512 29.3603 -7.29202 -26.5204 
27.9526 -9.44055 -26.821 35.119 -7.95101 -23.2602 39.0032 -7.53499 -19.6164 
30.4091 -4.58376 -25.1085 27.584 -6.02514 -26.387 42.2923 -7.19606 -17.3069 
45.1989 -4.73125 -14.3494 48.0453 -5.24579 -13.5826 15.8992 -4.16827 -28.7742 
14.2639 -2.12902 -28.168 13.4253 -6.01876 -28.1642 15.4076 -7.65094 -28.6488 
33.4006 -5.75546 -23.6267 36.3922 -5.57584 -20.769 15.576 2.64558 -26.8841 
11.7064 -3.73079 -27.9587 11.0874 -6.76132 -27.0889 13.7983 -9.72265 -27.3884 
12.249 -8.77171 -26.9705 33.7838 -3.18769 -22.0287 30.8066 -1.06067 -23.2804 
27.8032 -2.79411 -25.3983 39.763 -4.05366 -17.0877 42.4424 -4.5998 -15.534 
12.1303 -0.30212 -27.7454 34.7158 1.25023 -19.432 28.208 0.28787 -23.8151 
31.146 2.16358 -21.5487 11.9904 4.68418 -26.7099 9.47346 0.40866 -27.5221 
10.122 -2.27579 -27.7555 37.3847 -2.10746 -18.353 18.4748 7.03796 -25.1573 
15.8582 8.87406 -24.9894 8.35552 4.13326 -27.1518 6.77689 0.28158 -27.0982 
8.11796 -2.50251 -27.1271 19.3473 12.8775 -23.2558 54.4275 11.1663 -10.0923 
9.97612 8.39874 -26.4142 12.8168 11.7652 -25.0569 9.7416 14.2728 -25.5287 
7.24381 9.0779 -26.7131 6.57788 15.895 -26.0675 5.40634 4.09467 -26.9522 
3.99239 9.79975 -26.6366 16.233 16.5704 -23.0255 19.6944 20.5638 -21.2465 
12.7464 19.8476 -23.6008 9.2691 22.1372 -24.5383 22.7477 22.8533 -20.211 
16.2887 25.9778 -21.3883 12.3268 28.0435 -22.653 47.2692 21.9571 -13.6887 
20.5643 27.7875 -19.9115 45.4095 23.9283 -14.0449 49.7477 20.5884 -11.5985 
48.0305 22.482 -12.1926 18.2184 33.0322 -20.188 14.9705 32.32 -21.2822 
38.7942 26.8016 -16.7997 8.74636 30.4915 -23.4157 6.01068 23.4407 -25.2975 
12.497 34.5997 -21.6856 9.88995 37.3693 -21.3666 5.21866 29.2045 -24.4735 
5.92526 34.9167 -22.7081 22.0974 33.2697 -19.213 36.3503 29.0123 -16.837 
40.3239 27.2415 -15.7655 43.5052 25.6747 -14.4464 15.886 36.7611 -20.3366 
25.9335 32.8539 -18.5389 19.6703 37.3282 -19.2486 29.4218 32.2548 -17.9828 
26.9721 35.3203 -18.008 23.506 36.6305 -18.5257 16.7629 40.3701 -18.9183 
13.3604 38.6376 -20.388 32.4729 31.7013 -17.3055 21.3772 39.6532 -18.0829 
29.7419 33.9861 -17.5726 28.4503 36.1413 -17.2461 25.1192 38.1271 -17.6162 
31.6483 33.8352 -16.861 27.0836 38.4326 -16.5663 30.4846 35.9954 -16.2602 
23.5216 40.4996 -16.8717 53.6789 -32.1178 -25.8524 52.3424 -35.0808 -26.6832 
50.5623 -36.3094 -28.53 55.5646 -27.85 -23.3752 30.6128 -17.6561 -27.8366 
29.0923 -16.5305 -27.1139 31.4447 -20.0064 -27.9034 29.4766 -19.5041 -26.7129 
26.4554 -12.7525 -26.0785 27.5014 -15.5897 -26.3229 26.1632 -1.89374 -25.1393 
25.8345 -4.81581 -25.8282 12.1168 40.9494 -19.5522 35.9694 -30.8224 -34.4623 
48.0019 -29.0688 -29.4656 44.414 -28.3064 -30.5241 29.0917 4.33397 -21.2599 
26.0597 0.306 -23.7293 3.63559 17.4805 -26.2157 3.07897 24.3984 -25.4753 
35.0982 31.367 -16.3654 40.016 -31.2413 -34.7371 51.0146 -29.9004 -26.7826 
50.891 -6.4605 -12.9197 9.53891 -4.71784 -27.0956 33.286 5.99634 -18.6375 
7.00952 40.2772 -20.3555 42.2144 -33.506 -33.9284 57.7284 -25.4878 -18.6394 
55.4344 -32.4837 -21.5046 57.4518 -29.8838 -16.8209 54.5415 -16.9113 -16.125 
26.0335 -8.46194 -26.1678 55.8448 5.81135 -11.1195 55.9611 7.9895 -9.46302 
38.7059 29.1496 -15.5993 19.5432 42.0014 -17.3414 53.8506 -35.5517 -23.15 
51.9149 -37.7774 -25.1393 33.5226 -20.6643 -28.872 15.5415 -11.4221 -27.6782 
53.4421 14.2355 -9.90439 46.1722 24.3154 -12.7906 41.9659 27.312 -14.5106 
44.4186 25.8618 -13.3648 33.9493 33.4533 -15.8378 38.1888 -32.5681 -34.4837 
46.6092 -35.0712 -32.3547 49.0477 -32.9881 -27.9503 51.4705 -33.6237 -24.5117 
52.9807 -30.681 -23.0365 45.6492 -31.8387 -29.6458 41.6294 -27.6546 -30.8329 
[...]
CELL_DATA 11568
SCALARS part float
LOOKUP_TABLE default
19 19 19 19 19 19 19 19 19 
19 19 19 19 19 19 19 19 19 
19 19 19 19 19 19 19 19 19 
19 19 19 19 19 19 19 19 19 
19 19 19 19 19 19 19 19 19 
19 19 19 19 19 19 19 23 23 
19 23 19 23 23 23 19 19 19 
23 23 23 19 19 19 19 19 19 
19 19 19 19 19 19 23 23 23 
23 19 19 19 19 19 19 19 19 
23 23 23 19 19 23 23 23 23 
19 23 23 23 23 19 23 19 19 
23 23 19 19 19 19 19 19 19 
19 19 19 19 19 19 19 19 19 
19 19 19 19 19 19 19 19 19 
19 19 19 19 19 19 19 19 23 
23 23 23 23 19 19 19 23 23 
19 19 19 19 19 23 23 23 19 
19 19 19 19 23 19 19 19 23 
23 19 23 23 23 19 19 19 23 
23 23 23 23 23 23 19 19 19 
19 19 19 19 19 19 19 19 23 
23 23 23 19 19 19 19 19 19 
23 23 19 19 19 23 23 19 19 
19 19 19 19 19 19 19 19 19 
19 19 19 19 19 19 19 19 19 
19 19 19 19 19 19 19 19 19 
19 19 19 19 19 19 19 19 19 
19 19 19 19 19 19 19 19 19 
19 19 19 19 23 23 19 19 19 
19 19 19 19 19 19 19 23 23 
23 19 19 19 19 19 19 19 19 
23 19 19 19 23 23 19 19 19 
19 19 19 19 19 19 23 23 23 
23 19 19 19 19 19 19 19 19 
19 19 19 19 23 23 23 19 19 
19 23 23 19 19 19 19 19 23 
19 19 19 19 19 19 19 19 19 
19 19 19 19 23 23 23 23 19 
19 19 19 19 19 19 19 19 19 
23 23 23 23 19 19 19 19 19 
23 23 19 19 19 19 19 19 19 
19 19 19 19 19 19 19 23 23 
23 19 19 19 19 19 23 23 19 
19 19 19 19 23 23 23 23 19 
19 19 19 23 19 19 19 19 19 
19 19 19 19 19 19 19 23 23 
23 23 23 23 19 19 19 23 19 
19 23 23 23 23 23 19 19 19 
19 19 19 19 19 19 19 23 23 
19 19 19 19 23 23 23 23 19 
19 19 19 19 19 23 23 23 23 
23 19 19 19 19 23 23 23 19 
23 23 23 23 23 23 23 19 19 
19 19 19 19 19 19 19 19 19 
19 19 19 19 19 19 19 19 19 
19 19 19 19 19 19 19 19 19 
19 19 19 19 19 19 19 19 19 
19 19 19 19 19 19 19 19 19 
19 19 19 19 19 19 19 19 19 
19 19 19 19 19 19 19 19 19 
19 19 19 19 19 19 19 19 19 
19 19 19 19 19 19 19 19 19 
19 19 19 19 19 23 23 23 23 
23 23 23 23 23 19 19 19 19 
23 19 19 23 19 19 19 23 19 
19 19 19 19 19 19 19 19 23 
23 19 19 19 19 19 19 23 23 
19 19 23 19 19 23 23 19 19 
19 19 19 19 19 19 23 23 19 
19 19 19 19 19 19 19 19 19 
19 23 23 23 19 19 19 19 19 
19 19 19 19 19 23 23 23 23 
19 19 19 19 19 19 23 23 23 
19 19 23 19 19 19 19 19 23 
23 23 19 19 19 19 19 19 19 
19 19 19 19 23 23 23 23 23 
19 23 23 23 23 23 23 23 23 
23 23 19 19 19 19 23 23 19 
19 19 19 19 19 19 19 19 19 
19 19 19 19 19 19 19 19 19 
19 19 19 19 19 19 19 19 23 
23 23 23 23 19 19 19 19 19 
19 19 19 19 19 19 19 19 19 
19 19 19 19 19 19 23 23 19 
19 19 19 19 19 19 19 19 19 
19 19 19 19 19 19 19 23 23 
19 19 23 23 19 19 19 19 19 
23 23 23 23 23 19 19 19 19 
19 19 19 19 19 19 19 19 19 
19 23 23 19 19 19 19 19 19 
19 19 19 19 23 23 19 19 19 
19 23 23 23 23 19 19 23 23 
19 19 19 19 19 19 23 23 23 
23 23 23 23 23 23 19 19 19 
19 19 23 23 23 23 23 23 23 
19 23 23 23 19 23 23 19 19 
19 19 19 19 19 19 19 19 19 
19 19 19 19 19 23 23 23 23 
23 19 19 19 19 19 19 19 19 
19 19 19 19 19 19 19 19 19 
19 23 23 23 23 19 19 19 19 
19 19 23 19 19 19 19 19 23 
23 23 23 19 19 19 19 23 23 
19 19 19 19 19 19 19 23 23 
23 23 23 23 23 23 19 19 19 
19 23 23 23 23 23 23 19 19 
19 19 19 19 19 19 19 19 19 
19 19 19 19 19 19 19 19 19 
23 19 19 19 19 19 19 19 19 
19 19 19 19 19 19 19 19 19 
19 19 19 19 19 23 23 23 23 
23 23 23 23 23 23 19 23 23 
19 19 19 19 19 19 19 19 19 
19 19 19 19 23 19 19 19 19 
19 19 19 19 19 19 23 23 23 
23 23 19 19 19 19 19 19 19 
19 19 19 19 19 19 19 19 19 
19 19 19 19 23 23 19 19 19 
19 19 19 19 19 19 19 19 19 
19 19 19 23 23 23 23 19 19 
23 23 23 23 23 23 23 19 19 
23 23 23 23 23 19 19 19 19 
19 19 19 19 23 23 23 23 23 
23 23 23 19 19 19 19 19 19 
19 19 23 23 23 19 19 19 19 
23 23 19 19 19 19 19 19 19 
19 19 19 19 19 19 19 19 19 
19 19 19 19 19 19 19 19 19 
19 19 19 19 19 19 19 19 19 
19 19 19 19 19 19 19 19 19 
19 19 19 23 19 19 19 23 23 
23 19 19 23 23 23 19 19 19 
19 19 19 19 19 19 19 19 19 
19 19 19 23 23 23 23 19 19 
19 19 19 19 19 19 19 23 23 
23 19 23 23 19 19 19 19 19 
19 19 19 23 23 19 19 23 23 
23 19 19 19 19 19 19 19 19 
19 19 19 19 19 19 19 19 23 
19 19 19 19 19 19 19 19 19 
23 19 23 23 23 23 23 19 19 
19 19 19 19 19 19 19 19 23 
23 23 23 23 23 23 19 19 19 
19 23 23 19 23 19 19 19 19 
19 19 19 19 19 23 23 23 23 
23 23 23 23 19 19 19 23 23 
23 19 19 19 19 19 23 23 19 
19 19 19 19 23 23 23 23 19 
19 19 19 19 19 19 23 23 19 
23 19 23 23 23 19 19 19 19 
19 19 19 23 23 23 19 19 19 
19 19 19 19 19 19 19 19 19 
19 19 19 19 23 23 19 19 19 
19 19 19 19 19 19 19 19 19 
19 19 19 19 19 23 19 23 23 
23 19 19 19 19 19 19 23 23 
19 23 23 23 19 19 19 19 19 
19 19 19 19 19 19 19 19 19 
19 19 19 19 19 19 19 19 19 
19 19 23 23 19 19 19 19 19 
19 19 23 23 23 23 19 19 19 
19 19 19 23 19 19 19 19 19 
19 23 23 19 19 19 23 23 23 
23 23 19 19 19 19 23 23 23 
23 23 19 19 19 19 19 19 19 
19 19 23 23 23 19 19 19 19 
19 19 19 19 19 19 19 19 19 
23 23 19 23 23 23 19 19 19 
19 19 23 19 19 19 19 19 19 
19 19 19 19 19 23 19 23 23 
23 23 23 19 19 19 23 19 19 
19 19 19 19 19 23 23 19 19 
19 19 19 19 19 19 19 19 19 
19 19 19 19 19 23 19 19 23 
23 23 19 19 23 23 23 23 23 
23 23 23 23 23 23 23 23 23 
23 23 23 23 19 23 23 23 23 
23 19 19 23 19 19 19 19 19 
19 19 19 19 19 19 19 19 19 
19 19 19 19 19 19 19 19 19 
19 19 19 19 19 19 19 23 23 
23 19 19 19 23 23 23 23 19 
19 19 19 19 19 19 19 19 19 
23 23 23 23 23 23 23 23 23 
19 19 19 19 19 19 19 19 19 
19 19 19 19 23 23 23 23 23 
23 19 19 19 19 19 19 19 19 
19 19 19 19 19 19 23 23 19 
19 19 19 19 19 19 19 23 19 
19 19 19 19 19 19 23 23 19 
19 19 19 19 23 23 19 19 19 
19 19 19 19 19 19 19 19 19 
23 23 23 23 23 23 23 23 23 
19 19 19 19 19 19 19 19 19 
19 19 19 19 19 19 23 23 23 
19 19 19 19 19 19 23 23 23 
19 19 19 19 19 19 19 19 23 
23 23 19 19 19 19 19 19 19 
19 19 19 19 19 19 19 19 19 
19 19 19 19 19 19 19 19 19 
19 19 19 19 19 19 19 19 19 
19 19 19 19 19 19 23 23 23 
19 23 19 19 19 19 19 19 19 
19 19 19 19 19 19 19 19 19 
19 19 19 23 23 19 19 19 19 
19 23 23 23 19 19 19 19 19 
19 19 19 19 19 19 19 19 19 
23 23 23 23 19 19 19 19 19 
23 23 19 19 19 19 23 19 19 
19 19 19 19 19 23 23 23 19 
23 23 19 19 23 23 23 23 23 
19 19 19 19 19 19 19 19 19 
19 19 19 23 19 19 19 19 23 
19 23 19 19 19 19 19 19 19 
19 19 23 23 23 23 19 19 19 
19 19 23 23 19 23 23 23 23 
19 19 19 19 19 19 19 19 19 
19 19 19 19 19 19 19 19 19 
19 19 19 19 23 19 19 23 23 
23 23 19 19 23 23 23 19 19 
19 19 19 19 19 19 23 23 23 
23 23 19 23 23 19 19 19 19 
19 19 19 19 19 19 19 19 19 
19 19 19 19 19 23 23 19 19 
19 19 23 19 19 19 19 19 19 
19 19 19 19 19 19 19 19 19 
23 23 23 19 23 23 19 23 23 
23 23 19 19 19 19 19 19 19 
19 19 19 19 19 23 19 19 19 
19 19 19 19 19 19 19 19 23 
23 23 23 23 19 23 23 23 23 
23 19 19 19 19 19 19 19 19 
19 23 19 19 19 19 19 19 19 
23 23 19 19 19 19 23 23 23 
23 23 19 19 19 19 19 19 19 
19 19 19 19 19 19 19 19 23 
23 23 23 23 23 19 19 19 19 
19 19 19 19 23 23 19 19 19 
23 23 23 23 23 19 19 19 19 
19 19 19 19 19 19 19 19 19 
19 19 19 19 19 19 19 19 19 
19 19 23 23 19 19 23 23 23 
23 23 23 23 23 23 23 19 19 
19 19 19 19 19 19 19 19 19 
19 19 23 23 23 19 19 19 23 
23 23 23 23 23 23 19 19 19 
19 19 19 19 19 19 23 19 19 
19 19 19 19 19 19 19 19 23 
23 23 19 19 19 19 19 19 19 
19 19 19 19 19 19 19 19 19 
19 19 19 19 19 19 19 19 19 
19 19 19 19 19 19 19 19 23 
23 23 19 19 19 19 23 23 23 
23 23 23 23 23 23 23 23 23 
23 19 19 19 19 19 19 19 19 
19 23 23 23 23 23 23 23 23 
23 23 23 23 23 23 23 23 19 
19 19 19 19 19 19 19 19 19 
23 23 23 23 23 23 23 23 19 
19 19 19 19 19 19 19 19 19 
19 19 23 23 23 19 19 19 19 
23 23 23 23 23 19 19 19 23 
19 19 19 19 19 19 19 19 19 
19 19 19 19 19 19 19 19 23 
19 19 19 19 19 19 23 23 23 
23 23 23 23 23 23 19 19 19 
23 23 19 19 19 19 19 19 19 
19 19 19 19 23 23 19 19 19 
19 19 19 23 19 19 19 23 23 
19 19 19 19 19 19 19 23 19 
23 23 23 23 23 19 23 23 19 
23 23 19 19 19 19 19 19 19 
19 19 19 19 23 19 19 19 19 
23 23 19 19 23 19 19 19 19 
19 19 19 19 19 19 19 19 19 
19 23 19 19 19 23 23 19 23 
23 23 19 19 19 19 19 19 19 
19 19 19 19 19 19 19 19 19 
23 23 23 23 23 19 19 23 23 
23 19 19 19 23 23 23 23 23 
19 19 19 19 19 19 19 19 19 
19 19 19 19 19 19 19 19 19 
19 19 19 19 19 19 19 19 19 
19 23 23 23 23 23 23 23 19 
19 19 19 19 19 19 19 19 19 
19 23 23 23 19 19 19 19 19 
19 19 19 19 19 19 19 19 19 
19 19 19 19 19 23 19 19 19 
19 19 19 19 19 23 19 23 23 
19 19 19 19 19 19 19 19 19 
19 19 23 19 19 19 19 19 19 
19 19 23 19 19 19 19 19 19 
19 19 19 23 23 23 19 23 23 
23 23 23 23 23 19 19 19 19 
19 19 19 19 19 19 19 19 23 
23 19 19 19 19 19 19 19 19 
23 23 23 19 19 19 19 19 19 
19 19 19 19 23 23 23 23 19 
19 19 23 23 19 19 19 19 19 
19 19 19 19 19 19 19 19 23 
19 19 19 19 19 19 19 23 19 
19 19 23 23 23 23 23 19 19 
19 19 19 19 19 19 19 19 19 
19 19 19 19 19 19 19 19 19 
23 23 23 19 19 19 19 19 19 
19 19 23 19 19 19 19 19 19 
19 19 19 19 23 23 23 23 19 
23 23 19 23 23 19 19 19 19 
19 19 19 19 19 19 19 19 19 
19 19 19 19 19 23 23 23 19 
23 23 19 19 19 19 19 19 23 
23 23 23 23 23 19 19 19 19 
19 19 19 19 19 23 19 19 19 
19 19 19 19 19 23 23 19 19 
19 19 19 19 19 19 19 19 19 
23 23 23 23 23 23 19 19 19 
19 19 19 19 19 19 19 19 19 
19 19 19 19 19 19 19 23 23 
23 23 23 23 23 23 23 23 23 
23 23 23 19 19 23 23 19 19 
19 19 19 19 19 19 19 19 23 
23 23 23 23 19 19 19 19 19 
19 19 23 23 19 23 23 23 19 
19 19 19 19 19 19 19 19 19 
19 19 19 19 19 23 23 23 19 
23 23 23 19 19 19 19 19 19 
19 19 19 23 23 23 23 23 23 
23 23 23 19 19 23 23 23 23 
23 23 23 23 23 23 19 19 23 
19 23 19 19 19 19 19 19 19 
19 19 19 23 23 23 23 19 19 
19 23 19 19 19 19 19 23 19 
19 19 19 19 23 23 19 19 19 
23 23 23 23 23 23 19 19 19 
19 19 19 19 19 19 19 19 19 
19 19 19 19 23 19 19 23 19 
19 19 19 19 19 19 19 19 19 
19 23 23 23 23 23 23 23 23 
23 23 23 19 19 23 23 19 19 
19 19 19 19 19 19 19 19 23 
19 23 23 23 23 23 23 23 23 
23 23 23 23 19 19 19 19 19 
19 19 19 19 19 23 23 19 19 
23 23 23 23 23 23 19 19 19 
23 23 23 19 19 19 19 19 19 
19 19 19 19 19 23 23 23 23 
23 19 19 19 19 19 19 19 23 
19 19 19 19 19 19 19 19 19 
19 23 23 23 23 19 19 23 23 
23 19 19 19 19 19 19 19 19 
19 19 19 19 23 23 19 19 19 
19 19 23 19 19 19 19 19 19 
19 19 19 19 19 19 19 19 23 
19 19 19 23 23 19 19 19 19 
19 19 19 19 19 19 19 19 19 
19 19 19 19 19 19 19 19 19 
19 23 23 19 19 19 19 19 19 
19 19 19 19 19 19 19 19 19 
19 19 19 19 19 19 23 23 23 
23 23 23 23 23 19 19 19 19 
19 19 19 19 19 19 19 19 19 
19 19 19 19 19 19 19 19 19 
23 23 23 23 23 19 19 19 19 
19 19 19 19 19 19 19 19 19 
19 23 23 23 23 23 19 19 19 
23 23 19 19 19 19 19 19 19 
19 19 19 19 19 19 23 23 23 
23 23 23 23 19 19 19 19 19 
19 19 19 23 23 19 19 19 19 
19 19 19 19 19 19 19 19 19 
23 23 23 23 23 23 23 23 23 
23 23 23 23 19 23 19 19 19 
19 19 19 19 19 19 19 19 19 
19 23 23 19 19 19 19 23 23 
23 19 19 19 19 19 19 19 19 
19 19 23 23 23 23 23 23 19 
19 19 19 19 19 19 19 19 19 
19 19 23 23 23 23 23 23 23 
23 23 19 19 19 19 19 19 19 
19 19 19 19 23 23 19 19 19 
19 19 19 19 19 19 19 19 23 
23 19 23 23 23 23 23 23 23 
23 23 23 23 19 19 19 19 19 
19 19 19 23 19 19 23 19 19 
23 23 19 19 19 19 19 19 19 
19 19 19 19 19 19 19 23 23 
23 23 23 19 19 19 19 23 23 
23 23 23 23 23 23 23 23 23 
19 19 19 19 19 19 19 19 19 
19 19 19 23 19 23 23 23 19 
19 19 19 19 19 19 19 19 19 
19 19 19 19 19 19 19 23 23 
23 23 23 19 19 19 19 19 19 
19 19 19 19 19 19 19 19 19 
19 19 19 19 19 19 23 19 19 
19 19 19 19 19 19 19 19 19 
23 19 19 19 19 19 19 19 19 
19 19 19 19 19 19 19 19 19 
23 23 23 23 23 23 19 19 19 
19 19 19 19 19 19 19 19 23 
23 23 23 23 19 19 19 19 19 
19 19 19 19 19 19 19 19 19 
19 19 19 23 23 23 23 23 23 
23 19 19 19 19 19 19 19 19 
19 19 19 19 19 19 19 19 19 
23 23 19 19 19 23 23 19 19 
19 19 19 19 19 19 19 19 19 
19 19 19 19 19 23 23 23 23 
19 19 19 23 23 23 19 19 19 
19 19 19 19 19 19 19 23 19 
19 23 19 19 19 19 19 19 19 
23 23 23 23 23 19 19 19 19 
19 19 19 19 19 19 19 23 19 
23 23 23 23 19 19 19 19 19 
19 19 19 19 19 19 19 19 19 
23 23 23 23 23 23 23 23 23 
23 23 23 23 19 19 19 19 19 
19 19 19 19 19 19 23 23 23 
23 23 23 19 19 23 23 23 19 
19 19 19 19 19 19 19 19 19 
19 23 19 19 23 19 19 19 19 
19 19 19 19 19 19 19 23 23 
23 19 19 19 19 19 23 23 19 
19 19 19 19 19 19 19 19 19 
19 19 19 23 19 19 23 23 23 
23 23 23 23 23 19 19 19 19 
19 19 19 19 19 19 19 19 23 
23 19 19 19 19 19 19 19 19 
19 19 19 19 19 23 23 23 23 
23 23 23 23 23 19 19 23 19 
19 19 19 19 19 19 19 19 19 
19 19 19 19 19 23 23 23 23 
19 19 23 23 19 19 19 19 23 
23 19 19 19 19 19 19 19 19 
19 19 19 19 19 19 19 23 23 
23 23 23 23 23 23 19 19 19 
19 19 19 19 19 19 19 23 23 
19 19 19 19 19 23 23 23 19 
19 19 19 19 19 19 19 19 19 
23 23 23 19 19 19 19 19 19 
19 19 19 19 19 19 23 19 23 
23 19 19 19 19 23 23 23 19 
19 19 19 19 19 19 19 19 19 
19 23 23 23 19 19 23 19 19 
19 19 19 19 23 23 23 19 23 
19 19 19 23 23 23 23 23 23 
23 23 19 19 19 19 19 19 19 
19 19 19 19 19 23 23 23 23 
23 23 23 19 19 19 19 19 19 
19 19 19 19 19 23 23 23 23 
23 23 23 19 19 19 19 19 19 
19 19 19 19 19 19 19 23 23 
23 23 23 23 23 23 23 23 23 
19 19 19 19 19 19 19 19 19 
19 19 23 23 23 23 19 19 19 
19 19 19 19 23 23 19 19 19 
19 19 19 19 19 19 19 19 19 
23 23 23 19 23 19 19 23 23 
23 19 19 19 19 19 19 19 19 
19 19 19 19 23 23 23 23 19 
19 19 19 19 19 19 19 19 19 
19 23 19 19 19 19 19 19 19 
19 19 19 19 19 19 19 19 19 
19 19 19 19 19 19 19 19 19 
19 19 19 19 23 23 23 23 19 
19 19 19 19 19 19 19 19 19 
19 19 19 23 23 23 19 23 23 
23 19 23 19 19 19 19 19 19 
19 19 23 19 19 19 19 23 23 
19 19 19 19 19 19 23 19 19 
23 23 19 19 19 19 19 19 19 
19 19 19 23 23 23 23 19 19 
19 19 19 19 19 19 19 19 19 
19 19 19 23 23 19 19 19 23 
23 23 23 23 19 19 19 19 19 
19 19 19 19 19 19 19 23 23 
23 23 23 19 19 19 19 23 23 
23 23 19 19 19 19 19 19 19 
19 19 19 19 19 19 19 19 23 
23 23 23 23 23 23 19 23 19 
19 19 19 19 19 23 23 19 23 
19 23 19 19 19 19 19 19 19 
19 19 19 19 19 19 19 23 23 
23 19 19 19 19 19 19 19 19 
19 19 23 23 23 19 19 23 23 
19 19 19 19 19 19 19 19 19 
23 23 23 23 23 19 19 19 19 
19 19 19 19 23 19 19 19 23 
19 19 19 19 19 19 19 19 19 
19 19 19 19 19 19 19 19 19 
19 19 19 19 19 19 19 19 23 
23 19 19 23 23 23 23 23 19 
19 19 19 19 19 19 19 19 19 
23 23 23 19 19 19 19 19 19 
19 19 19 19 19 23 23 23 23 
23 23 23 23 23 23 23 19 19 
19 19 19 19 19 19 19 23 23 
23 23 23 23 23 23 23 23 19 
19 19 19 19 19 19 19 19 23 
23 23 23 23 23 19 19 19 19 
19 19 23 23 23 19 19 19 19 
19 19 19 19 23 23 23 23 23 
23 23 19 23 23 23 23 23 23 
23 19 19 19 19 19 19 19 19 
19 19 19 19 19 19 19 19 19 
19 19 19 19 19 19 19 19 19 
23 23 23 23 19 23 23 23 19 
19 19 19 19 19 19 23 23 23 
23 23 23 19 19 23 19 19 19 
19 19 19 19 23 23 23 23 23 
23 23 19 19 19 19 19 19 23 
23 23 23 23 19 19 19 19 19 
19 19 19 19 19 19 23 23 23 
19 19 19 19 23 23 19 19 19 
19 19 19 19 23 23 23 23 23 
23 23 19 19 19 19 19 23 19 
19 19 19 19 19 19 19 19 19 
19 19 23 23 23 23 23 23 23 
23 23 23 23 23 19 19 19 19 
19 19 19 19 19 19 23 23 23 
23 23 19 19 19 19 19 19 19 
19 19 19 19 23 23 23 23 23 
23 23 23 23 19 19 19 19 19 
19 19 19 19 19 19 23 23 23 
23 23 23 23 23 23 23 19 19 
19 19 19 19 19 19 19 23 23 
23 19 19 19 19 19 19 19 23 
23 23 23 19 19 19 19 19 19 
19 19 19 19 23 23 23 19 19 
19 19 23 23 23 23 19 23 23 
23 23 23 23 23 23 23 23 23 
23 23 19 19 19 19 19 19 19 
19 19 19 19 19 19 19 19 19 
19 19 19 19 19 23 23 23 23 
23 23 19 19 19 19 19 19 19 
19 19 19 19 23 23 23 19 19 
19 19 19 19 19 19 19 19 19 
23 23 23 23 19 19 19 19 19 
19 19 19 19 19 23 23 19 19 
19 19 19 19 19 19 19 23 23 
23 19 19 19 19 19 19 19 19 
19 19 23 19 23 23 23 23 23 
23 23 23 19 19 19 19 19 19 
19 19 19 19 19 19 19 19 19 
23 23 23 23 19 19 19 23 23 
23 23 19 19 19 19 19 19 19 
19 19 19 19 19 19 19 19 19 
23 23 23 23 23 23 23 23 23 
19 19 19 19 19 19 19 19 19 
19 19 19 19 19 19 19 19 19 
19 23 23 23 19 19 19 19 23 
23 19 19 19 19 19 19 19 19 
19 19 19 23 23 23 23 23 19 
19 19 19 19 19 19 19 19 19 
19 19 19 19 19 19 19 19 23 
19 19 19 19 19 19 19 19 23 
23 23 23 19 19 19 19 19 19 
19 19 19 19 19 23 19 23 23 
19 19 19 19 19 19 19 19 19 
19 19 19 23 23 19 19 23 23 
23 23 23 23 23 19 19 19 19 
19 19 19 19 19 19 23 23 23 
23 23 23 19 23 19 19 19 23 
23 23 19 19 19 19 19 23 23 
23 19 19 19 19 19 19 19 19 
19 19 19 19 19 19 19 19 19 
19 19 23 23 19 23 23 23 23 
19 19 19 19 19 19 19 19 19 
23 19 19 19 19 19 19 19 23 
23 19 19 19 23 23 23 19 19 
19 19 19 19 19 19 19 19 23 
23 19 19 19 19 19 19 19 19 
23 23 23 23 23 23 19 19 19 
19 19 19 19 19 19 23 23 23 
19 19 23 19 19 19 19 19 19 
23 23 23 23 19 19 19 19 19 
19 19 19 19 19 19 19 19 23 
19 19 19 19 19 19 19 19 23 
19 19 23 23 23 19 19 19 19 
19 19 19 19 19 19 23 19 19 
19 19 19 19 19 19 19 19 19 
19 23 19 19 19 19 19 19 19 
19 19 19 19 19 19 19 19 19 
19 19 19 19 19 19 19 19 19 
23 19 19 19 19 19 19 23 23 
23 23 23 19 19 19 19 23 19 
23 23 19 19 19 19 19 19 19 
19 23 23 19 19 19 19 19 19 
19 19 19 23 19 19 19 19 19 
19 19 23 23 23 19 19 19 19 
19 19 19 19 19 19 19 19 23 
23 23 19 19 19 19 19 19 19 
19 19 19 19 23 23 23 19 19 
19 19 19 19 19 19 19 19 19 
19 19 19 19 19 23 23 23 23 
19 19 19 19 19 19 19 19 19 
19 23 23 19 19 19 19 19 19 
19 19 19 19 19 19 19 19 19 
19 19 19 19 19 19 19 19 19 
19 19 19 19 19 19 19 19 19 
19 23 23 23 23 19 19 23 23 
19 23 19 19 19 19 23 23 19 
19 19 19 19 23 23 23 23 23 
23 23 19 19 19 19 19 19 19 
19 19 19 23 19 19 19 19 19 
19 19 23 19 19 19 19 19 19 
19 19 19 19 19 19 19 19 23 
23 23 19 19 19 19 23 19 19 
19 19 19 23 23 23 23 23 23 
19 19 19 19 19 19 19 19 19 
23 19 19 23 23 19 19 19 23 
23 23 23 23 19 19 23 23 23 
23 23 23 23 19 23 23 23 23 
23 23 23 19 23 23 23 19 23 
19 23 19 19 23 23 19 19 19 
23 19 19 23 23 23 19 19 19 
19 19 19 23 19 23 23 19 19 
19 19 19 19 19 19 19 11 11 
11 11 11 11 11 11 11 11 11 
11 11 11 11 11 11 11 11 11 
11 11 11 11 11 11 11 11 11 
11 11 11 11 11 11 11 11 11 
11 11 11 11 11 11 11 11 11 
11 11 11 11 11 11 11 11 11 
11 11 11 11 11 11 11 11 11 
11 11 11 11 11 11 11 11 11 
11 11 11 11 11 11 11 11 11 
11 11 11 11 11 11 11 11 11 
11 11 11 11 11 11 11 11 11 
11 11 11 11 11 11 11 11 11 
11 11 11 11 11 11 11 11 11 
11 11 11 11 11 11 11 11 11 
11 11 11 11 11 11 11 11 11 
11 11 11 11 11 11 11 11 11 
11 11 11 11 11 11 11 11 11 
11 11 11 11 11 11 11 11 11 
11 11 11 11 11 11 11 11 11 
11 11 11 11 11 11 11 11 11 
11 11 11 11 11 11 11 11 11 
11 11 11 11 11 11 11 11 11 
11 11 11 11 11 11 11 11 11 
11 11 11 11 11 11 11 11 11 
11 11 11 11 11 11 11 11 11 
11 11 11 11 11 11 11 11 11 
11 11 11 11 11 11 11 11 11 
11 11 11 11 11 11 11 11 11 
11 11 11 11 11 11 11 11 11 
11 11 11 11 11 11 11 11 11 
11 11 11 11 11 11 11 11 11 
11 11 11 11 11 11 11 11 11 
11 11 11 11 11 11 11 11 11 
11 11 11 11 11 11 11 11 11 
11 11 11 11 11 11 11 11 11 
11 11 11 11 11 11 11 11 11 
11 11 11 11 11 11 11 11 11 
11 11 11 11 11 11 11 11 11 
11 11 11 11 11 11 11 11 11 
11 11 11 11 11 11 11 11 11 
11 11 11 11 11 11 11 11 11 
11 11 11 11 11 11 11 11 11 
11 11 11 11 11 11 11 11 11 
11 11 11 11 11 11 11 11 11 
11 11 11 11 11 11 11 11 11 
11 11 11 11 11 11 11 11 11 
11 11 11 11 11 11 11 11 11 
11 11 11 11 11 11 11 11 11 
11 11 11 11 11 11 11 11 11 
11 11 11 11 11 11 11 11 11 
11 11 11 11 11 11 11 11 11 
11 11 11 11 11 11 11 11 11 
11 11 11 11 11 11 11 11 11 
11 11 11 11 11 11 11 11 11 
11 11 11 11 11 11 11 11 11 
11 11 11 11 11 11 11 11 11 
11 11 11 11 11 11 11 11 11 
11 11 11 11 11 11 11 11 11 
11 11 11 11 11 11 11 11 11 
11 11 11 11 11 11 11 11 11 
11 11 11 11 11 11 11 11 11 
11 11 11 11 11 11 11 11 11 
11 11 11 11 11 11 11 11 11 
11 11 11 11 11 11 11 11 11 
11 11 11 11 11 11 11 11 11 
11 11 11 11 11 11 11 11 11 
11 11 11 11 11 11 11 11 11 
11 11 11 11 11 11 11 11 11 
11 11 11 11 11 11 11 11 11 
11 11 11 11 11 11 11 11 11 
11 11 11 11 11 11 11 11 11 
11 11 11 11 11 11 11 11 11 
11 11 11 11 11 11 11 11 11 
11 11 11 11 11 11 11 11 11 
11 11 11 11 11 11 11 11 11 
11 11 11 11 11 11 11 11 11 
11 11 11 11 11 11 11 11 11 
11 11 11 11 11 11 11 11 11 
11 11 11 11 11 11 11 11 11 
11 11 11 11 11 11 11 11 11 
11 11 11 11 11 11 11 11 11 
11 11 11 11 11 11 11 11 11 
11 11 11 11 11 11 11 11 11 
11 11 11 11 11 11 11 11 11 
11 11 11 11 11 11 11 11 11 
11 11 11 11 11 11 11 11 11 
11 11 11 11 11 11 11 11 11 
11 11 11 11 11 11 11 11 11 
11 11 11 11 11 11 11 11 11 
11 11 11 11 11 11 11 11 11 
11 11 11 11 11 11 11 11 11 
11 11 11 11 11 11 11 11 11 
11 11 11 11 11 11 11 11 11 