# vtk DataFile Version 3.0
vtk output
ASCII
DATASET POLYDATA
POINTS 5786 float
133.7728 75.8894 74.7505 127.2537 77.1425 73.9855 130.5251 78.3964 73.5201 
129.9679 74.9494 75.0446 137.4221 77.5656 74.1592 140.7877 74.6367 75.7727 
136.788 73.2386 76.0863 122.3725 78.02080000000001 73.724 123.7927 79.3353 72.9819 
124.1038 76.4724 74.4954 134.12369999999999 80.1728 73.1076 127.9338 80.7345 72.7769 
131.8977 82.5395 72.80199999999999 136.5977 82.1138 72.7403 140.8429 80.0732 73.31530000000001 
118.90520000000001 79.2684 73.3199 118.7733 77.78569999999999 74.4313 122.4468 81.5107 72.3689 
126.622 83.0641 72.6312 119.2213 80.5776 72.5648 115.3265 80.6439 73.0709 
115.7367 79.1527 73.9785 117.71379999999999 82.3486 72.287 121.9064 83.6922 72.3219 
114.0649 82.2664 72.626 115.5286 84.0356 72.3379 118.69030000000001 84.4387 72.17830000000001 
131.1112 85.1394 72.9156 126.3232 85.6726 72.7022 112.4058 83.4104 72.9017 
111.5879 81.3266 73.5211 118.356 86.7987 72.306 114.3774 85.9019 72.6819 
135.8838 84.5684 72.8061 140.41899999999998 83.6357 72.7833 122.0605 86.176 72.3631 
112.7967 79.6714 74.2372 143.9105 71.6597 77.4181 139.26760000000002 70.50919999999999 77.1028 
132.2305 72.6188 75.8139 120.97200000000001 75.9834 75.1128 126.0885 74.5602 75.1192 
109.87727 82.6433 73.7465 111.2481 85.1485 73.5412 116.4878 76.7195 75.76599999999999 
114.371 78.254 75.07300000000001 144.1609 76.5947 74.8801 147.5333 79.23910000000001 74.3309 
145.525 82.9344 73.28790000000001 135.415 87.5551 73.0394 139.711 87.0197 73.2235 
126.5899 88.9476 72.29650000000001 122.3277 88.6889 72.1263 146.5937 68.6863 78.7311 
134.2018 70.4152 76.2272 140.72050000000002 67.6087 77.6957 147.4922 73.4811 76.9111 
150.4972 70.4879 78.6539 153.6535 72.9953 78.5887 153.1873 67.7515 80.0918 
156.2231 70.2518 80.1829 127.4106 72.3923 75.3626 150.5669 75.9712 76.4166 
122.7398 74.4382 75.3227 118.809 75.0942 76.0309 111.6156 78.7056 75.4149 
112.5582 77.1371 76.8258 110.1512 79.8746 74.819 109.17577 81.0972 74.3415 
108.00566 80.0017 75.7305 109.80062 78.4489 76.4533 107.97082 81.8654 74.7344 
108.83157 83.729 74.4273 131.036 88.1207 72.7792 113.678 88.2157 73.1052 
109.75071 85.7457 74.5325 111.4495 88.0037 74.12559999999999 120.69239999999999 90.81225 71.8305 
116.6894 89.0135 72.4179 125.0115 91.53586 71.4475 109.62053 88.0339 75.4786 
108.28036 84.9837 75.3633 118.2923 91.98949999999999 71.8917 124.3392 94.36574 70.5384 
120.92920000000001 94.46147 70.97970000000001 115.7876 91.41243 72.5611 113.4162 91.10006 73.5017 
115.3325 94.35236 72.6531 111.5051 91.32808 74.6883 113.1598 94.43183 73.7266 
131.9757 69.3215 75.864 121.6791 73.35210000000001 75.7814 125.34270000000001 71.0777 75.6191 
128.6942 92.23856 71.3948 128.1993 94.65822 70.4233 149.4443 65.8394 79.9285 
153.4906 79.6527 77.0447 151.2532 83.2841 75.3483 131.6155 91.37862 72.201 
115.1658 75.3798 77.5308 139.2571 90.27033 74.0163 135.3492 90.67488 73.178 
117.98740000000001 94.61864 71.6686 144.5565 86.8618 73.56700000000001 158.6609 68.1341 81.8429 
155.86079999999998 65.4433 81.6174 112.6464 75.2473 79.6793 110.3378 76.67920000000001 78.9197 
107.15656 82.9692 75.3418 161.1889 66.55 84.0352 152.55689999999998 63.2895 81.2921 
158.4385 63.465 83.5117 136.9764 66.06649999999999 76.9417 145.3201 64.23490000000001 79.11019999999999 
158.8383 73.6098 81.1484 160.3452 71.0836 82.1705 162.7189 74.6507 84.6184 
162.9432 70.5068 84.6644 156.2937 76.53399999999999 79.3142 160.8348 78.1192 83.3145 
117.7539 73.7366 77.634 115.0861 73.6404 80.5265 137.4161 80.9299 85.1821 
132.60750000000002 80.7758 85.2561 135.0667 78.6275 84.71000000000001 130.3156 78.8509 84.7003 
140.9421 78.4691 84.6837 132.8093 76.6904 84.6151 138.5865 76.1737 84.566 
108.27292 78.0711 78.1015 149.9589 87.1226 75.051 106.50454 81.1951 75.8657 
106.62254 79.4083 77.4819 134.6018 82.8908 85.84309999999999 131.1583 82.35210000000001 85.6667 
139.5567 83.3486 85.955 131.9919 84.1862 86.094 136.2121 85.3184 86.5437 
143.8616 90.40189 74.6911 149.86180000000002 90.97876 76.8216 106.74207 84.3165 76.1309 
107.9337 86.3815 76.2406 105.6889 82.4223 76.2344 105.09934 83.8879 76.7634 
106.49161 86.2046 76.8475 132.4145 94.805 71.4914 135.6367 93.65613 73.1805 
109.85987 92.44866 75.8905 108.08359 89.5037 76.72919999999999 124.06309999999999 97.22959 69.7475 
127.5449 97.15896 69.5424 111.2731 95.45317 74.8331 114.72409999999999 96.9648 72.747 
112.8888 98.05703 73.604 117.4286 97.91289 71.5489 120.7733 97.48824 70.4601 
109.19813 97.36283 75.6644 108.05373 94.60872 76.5797 120.7531 100.09297 70.30539999999999 
123.8484 99.53973 69.5676 115.1254 99.84523 72.3353 117.9553 101.13322 71.191 
110.5255 99.96771 74.42920000000001 129.549 68.1807 76.1721 158.53379999999999 81.0929 81.1648 
156.6719 84.371 79.54599999999999 128.9213 80.8249 85.0361 139.0979 93.14928 74.6203 
112.6714 101.67969 73.1606 120.7228 71.9259 77.3636 111.4722 74.7558 82.6391 
143.2352 81.1134 85.3035 143.2665 93.24502 75.75319999999999 131.2329 97.27277 70.3862 
130.2719 99.12273 69.873 127.038 99.22771 69.2718 165.78480000000002 75.1028 89.03659999999999 
164.185 79.7051 87.8613 109.4333 76.1347 81.5363 128.637 82.8846 85.4477 
134.91219999999998 97.52257 72.4685 136.1756 95.96793 73.3107 123.5292 101.13817 69.8175 
121.1866 102.30323 70.47710000000001 124.2437 69.6729 77.50319999999999 134.1099 64.9319 77.6566 
128.3353 66.8574 78.9599 136.56459999999998 74.4325 85.2059 143.663 73.4306 85.3945 
144.2126 75.9896 84.745 127.8306 77.2764 84.9714 126.947 79.2323 84.53059999999999 
109.6382 104.24663 73.5754 115.3986 102.71813 72.0252 112.5591 104.8786 72.64410000000001 
131.3849 75.2231 85.7494 155.2553 87.7662 78.8752 153.9992 90.26506 78.7815 
105.38565 80.6627 77.2421 133.6284 99.19839 71.69200000000001 107.01543 102.97446 74.62219999999999 
165.1914 69.3916 87.6179 162.3012 83.0649 85.6225 148.1251 93.64569 77.5821 
155.5636 92.72848 81.8691 153.0554 94.16709 81.0606 139.0735 95.58004 74.9055 
129.4685 100.3624 69.89750000000001 132.3978 100.52736 71.3813 141.51749999999998 62.8174 78.5409 
117.82849999999999 71.9158 80.9755 149.7103 74.4658 85.5512 154.0601 76.9348 87.0833 
147.8501 78.24119999999999 85.3963 155.6199 73.029 86.8948 150.58679999999998 71.2073 86.161 
158.9101 76.5093 89.71000000000001 156.8051 80.2556 90.21914 152.66899999999998 80.1489 87.155 
139.9449 72.4368 86.4173 145.3502 70.6999 87.1099 160.6088 79.753 93.78247 
154.1107 83.0546 89.5413 158.3899 82.75829999999999 95.38497 135.1233 73.2847 87.277 
160.4692 85.3014 83.2989 160.2728 88.9187 84.4245 163.1701 87.1549 87.7996 
149.0228 81.9325 86.4549 158.0797 91.3323 83.17 163.6308 89.5354 91.32745 
161.6324 92.16192 89.2365 124.1362 78.6669 84.6549 124.5642 76.963 86.5827 
127.6471 75.6824 87.123 145.1099 83.936 86.5409 125.16669999999999 80.9286 84.2667 
107.6824 77.46549999999999 80.6824 141.6223 85.7507 87.1625 146.7746 86.5414 88.2881 
150.4975 84.9719 88.4886 121.1882 79.96549999999999 83.4389 121.3613 78.1955 86.459 
106.16061 78.8106 79.8827 121.7799 81.8987 82.687 118.8155 81.0977 81.868 
118.4678 79.8814 83.83279999999999 125.53960000000001 83.3823 84.358 129.1908 85.3162 85.5879 
118.9886 83.0823 81.3675 116.62389999999999 81.5882 81.5748 132.7036 85.987 86.2829 
134.8376 87.5326 86.661 138.9084 87.5723 87.5654 104.46469 81.9307 77.3358 
103.5161 83.3363 77.4892 103.77667 81.3638 79.3478 104.91491 80.10079999999999 79.3694 
122.6524 83.7803 82.91069999999999 125.48140000000001 85.5063 84.1748 104.20979 85.98349999999999 77.1473 
102.48747 82.8852 78.6087 103.32996 81.5553 81.3973 105.23399 79.386 82.9138 
104.42994 80.2562 82.9122 121.8762 85.5372 82.5289 118.2386 85.439 81.0869 
115.8046 83.4967 80.5005 128.0752 87.4088 84.9034 131.3484 87.5094 85.8553 
102.16802 84.6516 77.48349999999999 121.05930000000001 88.2425 82.2249 115.5676 85.6143 80.61789999999999 
117.6866 87.5325 81.2495 101.64314 87.4541 76.8814 100.61999 85.4578 77.6253 
101.42305 83.9344 78.309 124.7921 87.6349 83.6169 106.14453 88.5391 77.1814 
104.18994 89.8046 76.9689 99.30719 87.5584 76.79820000000001 99.40211 86.0072 78.215 
100.77657 84.3518 79.1915 106.37417 92.31948 76.9862 138.7614 97.74201 75.0052 
99.62248 89.6744 76.0038 101.38616999999999 91.62961 76.0705 98.28719 93.34729 75.0077 
97.58911 90.37629 75.7313 95.39386999999999 94.83635 74.4277 97.76247 88.1657 77.2047 
95.54708 91.50145 76.0374 103.47086 94.91349 76.2217 105.36414 97.70978 76.20949999999999 
99.52015 97.32275 74.8385 95.5281 99.3686 73.5916 106.94644 99.21367 75.9033 
100.69083 102.00353 74.5724 95.91679 104.08985 73.07079999999999 126.8743 100.98356 69.7508 
103.67654 103.18947 74.8049 124.937 102.30337 70.2484 130.6299 101.47053 71.1587 
128.4339 102.35672 71.044 98.92296 107.80702 73.0697 96.25685 107.5244 72.6339 
118.0993 103.155 71.2276 91.58127999999999 106.92808 71.9886 92.31337 100.96036 73.0218 
92.8462 110.09 71.7565 89.7231 113.5096 71.74459999999999 89.3741 106.44659 72.0484 
87.8361 112.0143 71.85640000000001 102.28356 107.90131 73.2715 116.0792 105.23849 71.8303 
119.8847 104.24757 71.11 123.1487 103.60038 70.7972 94.75365 111.6595 71.89150000000001 
105.8377 107.7073 73.1226 97.90353 111.9393 72.0974 109.18936 107.52284 72.71170000000001 
105.89375 110.4089 72.2634 101.88661 111.34309999999999 72.2147 94.11679 115.7204 71.822 
91.82371 114.103 71.6463 112.3121 107.51509 72.281 98.66377 114.6774 71.6969 
109.17636 109.49994 72.2383 107.42111 111.6645 71.9878 103.11064 113.2534 71.7787 
111.4485 109.86897 72.1259 105.62394 114.1682 71.7547 110.1667 112.1799 72.014 
101.01829 116.1928 71.6169 166.637 80.1694 92.54593 167.70940000000002 76.9274 93.30456 
167.50650000000002 72.6791 91.87185 165.17329999999998 84.0853 91.73654 125.42490000000001 75.8363 89.1242 
123.2021 76.6038 89.8522 127.7887 74.82300000000001 90.79366 125.1909 75.5021 92.97703 
119.0968 78.7948 88.9197 121.24510000000001 77.3848 90.79367 114.3414 84.0147 80.8315 
115.0085 82.392 82.113 90.28449 117.4716 72.2107 138.4216 61.6573 79.9702 
[...]
CELL_DATA 11571
SCALARS part float
LOOKUP_TABLE default
19 19 19 19 19 19 19 19 19
19 19 19 19 19 19 19 19 19
19 19 19 19 19 19 19 19 19
19 19 19 19 19 19 19 19 19
19 19 19 19 19 19 19 19 19
19 19 19 19 19 19 19 23 23
19 23 19 23 23 23 19 19 19
23 23 23 19 19 19 19 19 19
19 19 19 19 19 19 23 23 23
23 19 19 19 19 19 19 19 19
23 23 23 19 19 23 23 23 23
19 23 23 23 23 19 23 19 19
23 23 19 19 19 19 19 19 19
19 19 19 19 19 19 19 19 19
19 19 19 19 19 19 19 19 19
19 19 19 19 19 19 19 19 23
23 23 23 23 19 19 19 23 23
19 19 19 19 19 23 23 23 19
19 19 19 19 23 19 19 19 23
23 19 23 23 23 19 19 19 23
23 23 23 23 23 23 19 19 19
19 19 19 19 19 19 19 19 23
23 23 23 19 19 19 19 19 19
23 23 19 19 19 23 23 19 19
19 19 19 19 19 19 19 19 19
19 19 19 19 19 19 19 19 19
19 19 19 19 19 19 19 19 19
19 19 19 19 19 19 19 19 19
19 19 19 19 19 19 19 19 19
19 19 19 19 23 23 19 19 19
19 19 19 19 19 19 19 23 23
23 19 19 19 19 19 19 19 19
23 19 19 19 23 23 19 19 19
19 19 19 19 19 19 23 23 23
23 19 19 19 19 19 19 19 19
19 19 19 19 23 23 23 19 19
19 23 23 19 19 19 19 19 23
19 19 19 19 19 19 19 19 19
19 19 19 19 23 23 23 23 19
19 19 19 19 19 19 19 19 19
23 23 23 23 19 19 19 19 19
23 23 19 19 19 19 19 19 19
19 19 19 19 19 19 19 23 23
23 19 19 19 19 19 23 23 19
19 19 19 19 23 23 23 23 19
19 19 19 23 19 19 19 19 19
19 19 19 19 19 19 19 23 23
23 23 23 23 19 19 19 23 19
19 23 23 23 23 23 19 19 19
19 19 19 19 19 19 19 23 23
19 19 19 19 23 23 23 23 19
19 19 19 19 19 23 23 23 23
23 19 19 19 19 23 23 23 19
23 23 23 23 23 23 23 19 19
19 19 19 19 19 19 19 19 19
19 19 19 19 19 19 19 19 19
19 19 19 19 19 19 19 19 19
19 19 19 19 19 19 19 19 19
19 19 19 19 19 19 19 19 19
19 19 19 19 19 19 19 19 19
19 19 19 19 19 19 19 19 19
19 19 19 19 19 19 19 19 19
19 19 19 19 19 19 19 19 19
19 19 19 19 19 23 23 23 23
23 23 23 23 23 19 19 19 19
23 19 19 23 19 19 19 23 19
19 19 19 19 19 19 19 19 23
23 19 19 19 19 19 19 23 23
19 19 23 19 19 23 23 19 19
19 19 19 19 19 19 23 23 19
19 19 19 19 19 19 19 19 19
19 23 23 23 19 19 19 19 19
19 19 19 19 19 23 23 23 23
19 19 19 19 19 19 23 23 23
19 19 23 19 19 19 19 19 23
23 23 19 19 19 19 19 19 19
19 19 19 19 23 23 23 23 23
19 23 23 23 23 23 23 23 23
23 23 19 19 19 19 23 23 19
19 19 19 19 19 19 19 19 19
19 19 19 19 19 19 19 19 19
19 19 19 19 19 19 19 19 23
23 23 23 23 19 19 19 19 19
19 19 19 19 19 19 19 19 19
19 19 19 19 19 19 23 23 19
19 19 19 19 19 19 19 19 19
19 19 19 19 19 19 19 23 23
19 19 23 23 19 19 19 19 19
23 23 23 23 23 19 19 19 19
19 19 19 19 19 19 19 19 19
19 23 23 19 19 19 19 19 19
19 19 19 19 23 23 19 19 19
19 23 23 23 23 19 19 23 23
19 19 19 19 19 19 23 23 23
23 23 23 23 23 23 19 19 19
19 19 23 23 23 23 23 23 23
19 23 23 23 19 23 23 19 19
19 19 19 19 19 19 19 19 19
19 19 19 19 19 23 23 23 23
23 19 19 19 19 19 19 19 19
19 19 19 19 19 19 19 19 19
19 23 23 23 23 19 19 19 19
19 19 23 19 19 19 19 19 23
23 23 23 19 19 19 19 23 23
19 19 19 19 19 19 19 23 23
23 23 23 23 23 23 19 19 19
19 23 23 23 23 23 23 19 19
19 19 19 19 19 19 19 19 19
19 19 19 19 19 19 19 19 19
23 19 19 19 19 19 19 19 19
19 19 19 19 19 19 19 19 19
19 19 19 19 19 23 23 23 23
23 23 23 23 23 23 19 23 23
19 19 19 19 19 19 19 19 19
19 19 19 19 23 23 19 19 19
19 19 19 19 19 19 19 23 23
23 23 23 19 19 19 19 19 19
19 19 19 19 19 19 19 19 19
19 19 19 19 19 23 23 19 19
19 19 19 19 19 19 19 19 19
19 19 19 19 23 23 23 23 19
19 23 23 23 23 23 23 23 19
19 23 23 23 23 23 19 19 19
19 19 19 19 19 23 23 23 23
23 23 23 23 23 19 19 19 19
19 19 19 19 23 23 23 19 19
19 19 23 23 19 19 19 19 19
19 19 19 19 19 19 19 19 19
19 19 19 19 19 19 19 19 19
19 19 19 19 19 19 19 19 19
19 19 19 19 19 19 19 19 19
19 19 19 19 19 23 19 19 19
23 23 23 19 19 23 23 23 19
19 19 19 19 19 19 19 19 19
19 19 19 19 19 23 23 23 23
19 19 19 19 19 19 19 19 19
23 23 23 19 23 23 19 19 19
19 19 19 19 19 23 23 19 19
23 23 23 19 19 19 19 19 19
19 19 19 19 19 19 19 19 19
19 23 19 19 19 19 19 19 19
19 19 23 19 23 23 23 23 23
19 19 19 19 19 19 19 19 19
19 23 23 23 23 23 23 23 19
19 19 19 23 23 19 23 19 19
19 19 19 19 19 19 19 23 23
23 23 23 23 23 23 19 19 19
23 23 23 19 19 19 19 19 23
23 19 19 19 19 19 23 23 23
23 19 19 19 19 19 19 19 23
23 19 23 19 23 23 23 19 19
19 19 19 19 19 23 23 23 19
19 19 19 19 19 19 19 19 19
19 19 19 19 19 19 23 23 19
19 19 19 19 19 19 19 19 19
19 19 19 19 19 19 19 23 19
23 23 23 19 19 19 19 19 19
23 23 19 23 23 23 19 19 19
19 19 19 19 19 19 19 19 19
19 19 19 19 19 19 19 19 19
19 19 19 19 23 23 19 19 19
19 19 19 19 23 23 23 23 19
19 19 19 19 19 23 19 19 19
19 19 19 23 23 19 19 19 23
23 23 23 23 19 19 19 19 23
23 23 23 23 19 19 19 19 19
19 19 19 19 23 23 23 19 19
19 19 19 19 19 19 19 19 19
19 19 23 23 19 23 23 23 19
19 19 19 19 23 19 19 19 19
19 19 19 19 19 19 19 23 19
23 23 23 23 23 19 19 19 23
19 19 19 19 19 19 19 23 23
19 19 19 19 19 19 19 19 19
19 19 19 19 19 19 19 23 19
19 23 23 23 19 19 23 23 23
23 23 23 23 23 23 23 23 23
23 23 23 23 23 23 19 23 23
23 23 23 19 19 23 19 19 19
19 19 19 19 19 19 19 19 19
19 19 19 19 19 19 19 19 19
19 19 19 19 19 19 19 19 19
23 23 23 19 19 19 23 23 23
23 19 19 19 19 19 19 19 19
19 19 23 23 23 23 23 23 23
23 23 19 19 19 19 19 19 19
19 19 19 19 19 19 23 23 23
23 23 23 19 19 19 19 19 19
19 19 19 19 19 19 19 19 23
23 19 19 19 19 19 19 19 19
23 19 19 19 19 19 19 19 23
23 19 19 19 19 19 23 23 19
19 19 19 19 19 19 19 19 19
19 19 23 23 23 23 23 23 23
23 23 23 23 19 19 19 19 19
19 19 19 19 19 19 19 19 19
19 23 23 23 19 19 19 19 19
19 23 23 23 19 19 19 19 19
19 19 19 23 23 23 19 19 19
19 19 19 19 19 19 19 19 19
19 19 19 19 19 19 19 19 19
19 19 19 19 19 19 19 19 19
19 19 19 19 19 19 19 19 19
19 23 23 23 19 23 19 19 19
19 19 19 19 19 19 19 19 19
19 19 19 19 19 19 19 23 23
19 19 19 19 19 23 23 23 19
19 19 19 19 19 19 19 19 19
19 19 19 19 23 23 23 23 19
19 19 19 19 23 23 19 19 19
19 23 19 19 19 19 19 19 19
23 23 23 19 23 23 19 19 23
23 23 23 23 19 19 19 19 19
19 19 19 19 19 19 19 23 19
19 19 19 23 19 23 19 19 19
19 19 19 19 19 19 23 23 23
23 19 19 19 19 19 23 23 19
23 23 23 23 23 19 19 19 19
19 19 19 19 19 19 19 19 19
19 19 19 19 19 19 19 19 19
23 19 19 23 23 23 23 19 19
23 23 23 19 19 19 19 19 19
19 19 23 23 23 23 23 19 23
23 19 19 19 19 19 19 19 19
19 19 19 19 19 19 19 19 19
19 23 23 19 19 19 19 23 19
19 19 19 19 19 19 19 19 19
19 19 19 19 19 23 23 23 19
23 23 19 23 23 23 23 19 19
19 19 19 19 19 19 19 19 19
19 23 19 19 19 19 19 19 19
19 19 19 19 23 23 23 23 23
19 23 23 23 23 23 19 19 19
19 19 19 19 19 19 23 19 19
19 19 19 19 19 23 23 19 19
19 19 23 23 23 23 23 19 19
19 19 19 19 19 19 19 19 19
19 19 19 19 23 23 23 23 23
23 19 19 19 19 19 19 19 19
23 23 19 19 19 23 23 23 23
23 19 19 19 19 19 19 19 19
19 19 19 19 19 19 19 19 19
19 19 19 19 19 19 19 23 23
19 19 23 23 23 23 23 23 23
23 23 23 19 19 19 19 19 19
19 19 19 19 19 19 19 23 23
23 19 19 19 23 23 23 23 23
23 23 19 19 19 19 19 19 19
19 19 23 19 19 19 19 19 19
19 19 19 19 23 23 23 19 19
19 19 19 19 19 19 19 19 19
19 19 19 19 19 19 19 19 19
19 19 19 19 19 19 19 19 19
19 19 19 19 23 23 23 19 19
19 19 23 23 23 23 23 23 23
23 23 23 23 23 23 23 19 19
19 19 19 19 19 19 19 23 23
23 23 23 23 23 23 23 23 23
23 23 23 23 23 19 19 19 19
19 19 19 19 19 19 23 23 23
23 23 23 23 23 19 19 19 19
19 19 19 19 19 19 19 19 23
23 23 19 19 19 19 23 23 23
23 23 19 19 19 23 19 19 19
19 19 19 19 19 19 19 19 19
19 19 19 19 19 23 19 19 19
19 19 19 23 23 23 23 23 23
23 23 23 19 19 19 23 23 19
19 19 19 19 19 19 19 19 19
19 23 23 19 19 19 19 19 19
23 19 19 19 23 23 19 19 19
19 19 19 19 23 19 23 23 23
23 23 19 23 23 19 23 23 19
19 19 19 19 19 19 19 19 19
19 23 19 19 19 19 23 23 19
19 23 19 19 19 19 19 19 19
19 19 19 19 19 19 19 23 19
19 19 23 23 19 23 23 23 19
19 19 19 19 19 19 19 19 19
19 19 19 19 19 19 23 23 23
23 23 19 19 23 23 23 19 19
19 23 23 23 23 23 19 19 19
19 19 19 19 19 19 19 19 19
19 19 19 19 19 19 19 19 19
19 19 19 19 19 19 19 23 23
23 23 23 23 23 19 19 19 19
19 19 19 19 19 19 19 23 23
23 19 19 19 19 19 19 19 19
19 19 19 19 19 19 19 19 19
19 19 23 19 19 19 19 19 19
19 19 23 23 19 23 23 19 19
19 19 19 19 19 19 19 19 19
23 19 19 19 19 19 19 19 19
23 19 19 19 19 19 19 19 19
19 23 23 23 19 23 23 23 23
23 23 23 19 19 19 19 19 19
19 19 19 19 19 19 23 23 19
19 19 19 19 19 19 19 23 23
23 19 19 19 19 19 19 19 19
19 19 23 23 23 23 19 19 19
23 23 19 19 19 19 19 19 19
19 19 19 19 19 19 23 19 19
19 19 19 19 19 23 19 19 19
23 23 23 23 23 19 19 19 19
19 19 19 19 19 19 19 19 19
19 19 19 19 19 19 19 23 23
23 19 19 19 19 19 19 19 19
23 19 19 19 19 19 19 19 19
19 19 23 23 23 23 19 23 23
19 23 23 19 19 19 19 19 19
19 19 19 19 19 19 19 19 19
19 19 19 23 23 23 19 23 23
19 19 19 19 19 19 23 23 23
23 23 23 19 19 19 19 19 19
19 19 19 23 19 19 19 19 19
19 19 19 23 23 19 19 19 19
19 19 19 19 19 19 19 23 23
23 23 23 23 19 19 19 19 19
19 19 19 19 19 19 19 19 19
19 19 19 19 19 23 23 23 23
23 23 23 23 23 23 23 23 23
23 19 19 23 23 19 19 19 19
19 19 19 19 19 19 23 23 23
23 23 19 19 19 19 19 19 19
23 23 19 23 23 23 19 19 19
19 19 19 19 19 19 19 19 19
19 19 19 23 23 23 19 23 23
23 19 19 19 19 19 19 19 19
19 23 23 23 23 23 23 23 23
23 19 19 23 23 23 23 23 23
23 23 23 23 19 19 23 19 23
19 19 19 19 19 19 19 19 19
19 23 23 23 23 19 19 19 23
19 19 19 19 19 23 19 19 19
19 19 23 23 19 19 19 23 23
23 23 23 23 19 19 19 19 19
19 19 19 19 19 19 19 19 19
19 19 23 19 19 23 19 19 19
19 19 19 19 19 19 19 19 23
23 23 23 23 23 23 23 23 23
23 19 19 23 23 19 19 19 19
19 19 19 19 19 19 23 19 23
23 23 23 23 23 23 23 23 23
23 23 19 19 19 19 19 19 19
19 19 19 23 23 19 19 23 23
23 23 23 23 19 19 19 23 23
23 19 19 19 19 19 19 19 19
19 19 19 23 23 23 23 23 19
19 19 19 19 19 19 23 19 19
19 19 19 19 19 19 19 19 23
23 23 23 19 19 23 23 23 19
19 19 19 19 19 19 19 19 19
19 19 23 23 19 19 19 19 19
23 19 19 19 19 19 19 19 19
19 19 19 19 19 19 23 19 19
19 23 23 19 19 19 19 19 19
19 19 19 19 19 19 19 19 19
19 19 19 19 19 19 19 19 23
23 19 19 19 19 19 19 19 19
19 19 19 19 19 19 19 19 19
19 19 19 19 23 23 23 23 23
23 19 19 19 19 19 19 19 19
19 19 19 19 19 19 19 19 19
19 19 19 19 19 23 23 23 23
23 19 19 19 19 19 19 19 19
19 19 19 19 19 19 23 23 23
23 23 19 19 19 23 23 19 19
19 19 19 19 19 19 19 19 19
19 19 23 23 23 23 23 23 23
19 19 19 19 19 19 19 19 23
23 19 19 19 19 19 19 19 19
19 19 19 19 19 23 23 23 23
23 23 23 23 23 23 23 23 23
19 23 19 19 19 19 19 19 19
19 19 19 19 19 19 23 23 19
19 19 19 23 23 23 19 19 19
19 19 19 19 19 19 19 23 23
23 23 23 23 19 19 19 19 19
19 19 19 19 19 19 19 23 23
23 23 23 23 23 23 23 19 19
19 19 19 19 19 19 19 19 19
23 23 19 19 19 19 19 19 19
19 19 19 19 23 23 19 23 23
23 23 23 23 23 23 23 23 23
19 19 19 19 19 19 19 19 23
19 19 23 19 19 23 23 19 19
19 19 19 19 19 19 19 19 19
19 19 19 23 23 23 23 23 19
19 19 19 23 23 23 23 23 23
23 23 23 23 23 19 19 19 19
19 19 19 19 19 19 19 19 23
19 23 23 23 19 19 19 19 19
19 19 19 19 19 19 19 19 19
19 19 19 23 23 23 23 23 19
19 19 19 19 19 19 19 19 19
19 19 19 19 19 19 19 19 19
19 19 23 19 19 19 19 19 19
19 19 19 19 19 23 19 19 19
19 19 19 19 19 19 19 19 19
19 19 19 19 19 23 23 23 23
23 23 19 19 19 19 19 19 19
19 19 19 19 23 23 23 23 23
19 19 19 19 19 19 19 19 19
19 19 19 19 19 19 19 19 23
23 23 23 23 23 23 19 19 19
19 19 19 19 19 19 19 19 19
19 19 19 19 19 23 23 19 19
19 23 23 19 19 19 19 19 19
19 19 19 19 19 19 19 19 19
19 23 23 23 23 19 19 19 23
23 23 19 19 19 19 19 19 19
19 19 19 23 19 19 23 19 19
19 19 19 19 19 23 23 23 23
23 19 19 19 19 19 19 19 19
19 19 19 23 19 23 23 23 23
19 19 19 19 19 19 19 19 19
19 19 19 19 19 23 23 23 23
23 23 23 23 23 23 23 23 23
19 19 19 19 19 19 19 19 19
19 19 23 23 23 23 23 23 19
19 23 23 23 19 19 19 19 19
19 19 19 19 19 19 23 19 19
23 19 19 19 19 19 19 19 19
19 19 19 23 23 23 19 19 19
19 19 23 23 19 19 19 19 19
19 19 19 19 19 19 19 19 23
19 19 23 23 23 23 23 23 23
23 19 19 19 19 19 19 19 19
19 19 19 19 23 23 19 19 19
19 19 19 19 19 19 19 19 19
19 23 23 23 23 23 23 23 23
23 19 19 23 19 19 19 19 19
19 19 19 19 19 19 19 19 19
19 23 23 23 23 19 19 23 23
19 19 19 19 23 23 19 19 19
19 19 19 19 19 19 19 19 19
19 19 19 23 23 23 23 23 23
23 23 19 19 19 19 19 19 19
19 19 19 23 23 19 19 19 19
19 23 23 23 19 19 19 19 19
19 19 19 19 19 23 23 23 19
19 19 19 19 19 19 19 19 19
19 19 23 19 23 23 19 19 19
19 23 23 23 19 19 19 19 19
19 19 19 19 19 19 23 23 23
19 19 23 19 19 19 19 19 19
23 23 23 19 23 19 19 19 23
23 23 23 23 23 23 23 19 19
19 19 19 19 19 19 19 19 19
19 23 23 23 23 23 23 23 19
19 19 19 19 19 19 19 19 19
19 23 23 23 23 23 23 23 19
19 19 19 19 19 19 19 19 19
19 19 19 23 23 23 23 23 23
23 23 23 23 23 19 19 19 19
19 19 19 19 19 19 19 23 23
23 23 19 19 19 19 19 19 19
23 23 19 19 19 19 19 19 19
19 19 19 19 19 23 23 23 19
23 19 19 23 23 23 19 19 19
19 19 19 19 19 19 19 19 19
23 23 23 23 19 19 19 19 19
19 19 19 19 19 19 23 19 19
19 19 19 19 19 19 19 19 19
19 19 19 19 19 19 19 19 19
19 19 19 19 19 19 19 19 19
23 23 23 23 19 19 19 19 19
19 19 19 19 19 19 19 19 23
23 23 19 23 23 23 19 23 19
19 19 19 19 19 19 19 23 19
19 19 19 23 23 19 19 19 19
19 19 23 19 19 23 23 19 19
19 19 19 19 19 19 19 19 23
23 23 23 19 19 19 19 19 19
19 19 19 19 19 19 19 19 23
23 19 19 19 23 23 23 23 23
19 19 19 19 19 19 19 19 19
19 19 19 23 23 23 23 23 19
19 19 19 23 23 23 23 19 19
19 19 19 19 19 19 19 19 19
19 19 19 19 23 23 23 23 23
23 23 19 23 19 19 19 19 19
19 23 23 19 23 19 23 19 19
19 19 19 19 19 19 19 19 19
19 19 19 23 23 23 19 19 19
19 19 19 19 19 19 19 23 23
23 19 19 23 23 19 19 19 19
19 19 19 19 19 23 23 23 23
23 19 19 19 19 19 19 19 19
23 19 19 19 23 19 19 19 19
19 19 19 19 19 19 19 19 19
19 19 19 19 19 19 19 19 19
19 19 19 19 23 23 19 19 23
23 23 23 23 19 19 19 19 19
19 19 19 19 19 23 23 23 19
19 19 19 19 19 19 19 19 19
19 23 23 23 23 23 23 23 23
23 23 23 19 19 19 19 19 19
19 19 19 23 23 23 23 23 23
23 23 23 23 19 19 19 19 19
19 19 19 19 23 23 23 23 23
23 19 19 19 19 19 19 23 23
23 19 19 19 19 19 19 19 19
23 23 23 23 23 23 23 19 23
23 23 23 23 23 23 19 19 19
19 19 19 19 19 19 19 19 19
19 19 19 19 19 19 19 19 19
19 19 19 19 19 23 23 23 23
19 23 23 23 19 19 19 19 19
19 19 23 23 23 23 23 23 19
19 23 19 19 19 19 19 19 19
23 23 23 23 23 23 23 19 19
19 19 19 19 23 23 23 23 23
19 19 19 19 19 19 19 19 19
19 19 23 23 23 19 19 19 19
23 23 19 19 19 19 19 19 19
23 23 23 23 23 23 23 19 19
19 19 19 23 19 19 19 19 19
19 19 19 19 19 19 19 23 23
23 23 23 23 23 23 23 23 23
23 19 19 19 19 19 19 19 19
19 19 23 23 23 23 23 19 19
19 19 19 19 19 19 19 19 19
23 23 23 23 23 23 23 23 23
19 19 19 19 19 19 19 19 19
19 19 23 23 23 23 23 23 23
23 23 23 19 19 19 19 19 19
19 19 19 23 23 23 19 19 19
19 19 19 19 23 23 23 23 19
19 19 19 19 19 19 19 19 19
23 23 23 19 19 19 19 23 23
23 23 19 23 23 23 23 23 23
23 23 23 23 23 23 23 19 19
19 19 19 19 19 19 19 19 19
19 19 19 19 19 19 19 19 19
19 23 23 23 23 23 23 19 19
19 19 19 19 19 19 19 19 19
23 23 23 19 19 19 19 19 19
19 19 19 19 19 23 23 23 23
19 19 19 19 19 19 19 19 19
19 23 23 19 19 19 19 19 19
19 19 19 23 23 23 19 19 19
19 19 19 19 19 19 19 23 19
23 23 23 23 23 23 23 23 19
19 19 19 19 19 19 19 19 19
19 19 19 19 19 23 23 23 23
19 19 19 23 23 23 23 19 19
19 19 19 19 19 19 19 19 19
19 19 19 19 19 23 23 23 23
23 23 23 23 23 19 19 19 19
19 19 19 19 19 19 19 19 19
19 19 19 19 19 19 23 23 23
19 19 19 19 23 23 19 19 19
19 19 19 19 19 19 19 19 23
23 23 23 23 19 19 19 19 19
19 19 19 19 19 19 19 19 19
19 19 19 19 23 19 19 19 19
19 19 19 19 23 23 23 23 19
19 19 19 19 19 19 19 19 19
19 23 19 23 23 19 19 19 19
19 19 19 19 19 19 19 19 23
23 19 19 23 23 23 23 23 23
23 19 19 19 19 19 19 19 19
19 19 23 23 23 23 23 23 19
23 19 19 19 23 23 23 19 19
19 19 19 23 23 23 19 19 19
19 19 19 19 19 19 19 19 19
19 19 19 19 19 19 19 23 23
19 23 23 23 23 19 19 19 19
19 19 19 19 19 23 19 19 19
19 19 19 19 23 23 19 19 19
23 23 23 19 19 19 19 19 19
19 19 19 19 23 23 19 19 19
19 19 19 19 19 23 23 23 23
23 23 19 19 19 19 19 19 19
19 19 23 23 23 19 19 23 19
19 19 19 19 19 23 23 23 23
19 19 19 19 19 19 19 19 19
19 19 19 19 23 19 19 19 19
19 19 19 19 23 19 19 23 23
23 19 19 19 19 19 19 19 19
19 19 23 19 19 19 19 19 19
19 19 19 19 19 19 23 19 19
19 19 19 19 19 19 19 19 19
19 19 19 19 19 19 19 19 19
19 19 19 19 19 23 19 19 19
19 19 19 23 23 23 23 23 19
19 19 19 23 19 23 23 19 19
19 19 19 19 19 19 23 23 19
19 19 19 19 19 19 19 19 23
19 19 19 19 19 19 19 23 23
23 19 19 19 19 19 19 19 19
19 19 19 19 23 23 23 19 19
19 19 19 19 19 19 19 19 19
23 23 23 19 19 19 19 19 19
19 19 19 19 19 19 19 19 19
19 23 23 23 23 19 19 19 19
19 19 19 19 19 19 23 23 19
19 19 19 19 19 19 19 19 19
19 19 19 19 19 19 19 19 19
19 19 19 19 19 19 19 19 19
19 19 19 19 19 19 23 23 23
23 19 19 23 23 19 23 19 19
19 19 23 23 19 19 19 19 19
23 23 23 23 23 23 23 19 19
19 19 19 19 19 19 19 19 23
19 19 19 19 19 19 19 23 19
19 19 19 19 19 19 19 19 19
19 19 19 19 23 23 23 19 19
19 19 23 19 19 19 19 19 23
23 23 23 23 23 19 19 19 19
19 19 19 19 19 23 19 19 23
23 19 19 19 23 23 23 23 23
19 19 23 23 23 23 23 23 23
19 23 23 23 23 23 23 23 19
23 23 23 19 23 19 23 19 19
23 23 19 19 19 23 19 19 23
23 23 19 19 19 19 19 19 23
19 23 23 19 19 19 19 19 19
19 19 19 11 11 11 11 11 11
11 11 11 11 11 11 11 11 11
11 11 11 11 11 11 11 11 11
11 11 11 11 11 11 11 11 11
11 11 11 11 11 11 11 11 11
11 11 11 11 11 11 11 11 11
11 11 11 11 11 11 11 11 11
11 11 11 11 11 11 11 11 11
11 11 11 11 11 11 11 11 11
11 11 11 11 11 11 11 11 11
11 11 11 11 11 11 11 11 11
11 11 11 11 11 11 11 11 11
11 11 11 11 11 11 11 11 11
11 11 11 11 11 11 11 11 11
11 11 11 11 11 11 11 11 11
11 11 11 11 11 11 11 11 11
11 11 11 11 11 11 11 11 11
11 11 11 11 11 11 11 11 11
11 11 11 11 11 11 11 11 11
11 11 11 11 11 11 11 11 11
11 11 11 11 11 11 11 11 11
11 11 11 11 11 11 11 11 11
11 11 11 11 11 11 11 11 11
11 11 11 11 11 11 11 11 11
11 11 11 11 11 11 11 11 11
11 11 11 11 11 11 11 11 11
11 11 11 11 11 11 11 11 11
11 11 11 11 11 11 11 11 11
11 11 11 11 11 11 11 11 11
11 11 11 11 11 11 11 11 11
11 11 11 11 11 11 11 11 11
11 11 11 11 11 11 11 11 11
11 11 11 11 11 11 11 11 11
11 11 11 11 11 11 11 11 11
11 11 11 11 11 11 11 11 11
11 11 11 11 11 11 11 11 11
11 11 11 11 11 11 11 11 11
11 11 11 11 11 11 11 11 11
11 11 11 11 11 11 11 11 11
11 11 11 11 11 11 11 11 11
11 11 11 11 11 11 11 11 11
11 11 11 11 11 11 11 11 11
11 11 11 11 11 11 11 11 11
11 11 11 11 11 11 11 11 11
11 11 11 11 11 11 11 11 11
11 11 11 11 11 11 11 11 11
11 11 11 11 11 11 11 11 11
11 11 11 11 11 11 11 11 11
11 11 11 11 11 11 11 11 11
11 11 11 11 11 11 11 11 11
11 11 11 11 11 11 11 11 11
11 11 11 11 11 11 11 11 11
11 11 11 11 11 11 11 11 11
11 11 11 11 11 11 11 11 11
11 11 11 11 11 11 11 11 11
11 11 11 11 11 11 11 11 11
11 11 11 11 11 11 11 11 11
11 11 11 11 11 11 11 11 11
11 11 11 11 11 11 11 11 11
11 11 11 11 11 11 11 11 11
11 11 11 11 11 11 11 11 11
11 11 11 11 11 11 11 11 11
11 11 11 11 11 11 11 11 11
11 11 11 11 11 11 11 11 11
11 11 11 11 11 11 11 11 11
11 11 11 11 11 11 11 11 11
11 11 11 11 11 11 11 11 11
11 11 11 11 11 11 11 11 11
11 11 11 11 11 11 11 11 11
11 11 11 11 11 11 11 11 11
11 11 11 11 11 11 11 11 11
11 11 11 11 11 11 11 11 11
11 11 11 11 11 11 11 11 11
11 11 11 11 11 11 11 11 11
11 11 11 11 11 11 11 11 11
11 11 11 11 11 11 11 11 11
11 11 11 11 11 11 11 11 11
11 11 11 11 11 11 11 11 11
11 11 11 11 11 11 11 11 11
11 11 11 11 11 11 11 11 11
11 11 11 11 11 11 11 11 11
11 11 11 11 11 11 11 11 11
11 11 11 11 11 11 11 11 11
11 11 11 11 11 11 11 11 11
11 11 11 11 11 11 11 11 11
11 11 11 11 11 11 11 11 11
11 11 11 11 11 11 11 11 11
11 11 11 11 11 11 11 11 11
11 11 11 11 11 11 11 11 11
11 11 11 11 11 11 11 11 11
11 11 11 11 11 11 11 11 11
11 11 11 11 11 11 11 11 11
11 11 11 11 11 11 11 11 11
11 11 11 11 11 11 11 11 11
11 11 11 11 11 11 11 11 11
11 11 11 11 11 11 11 11 11
11 11 11 11 11 11 11 11 11
11 11 11 11 11 11 11 11 11
11 11 11 11 11 11 11 11 11
11 11 11 11 11 11 11 11 11
11 11 11 11 11 11 11 11 11
11 11 11 11 11 11 11 11 11
11 11 11 11 11 11 11 11 11
11 11 11 11 11 11 11 11 11
11 11 11 11 11 11 11 11 11
11 11 11 11 11 11 11 11 11
11 11 11 11 11 11 11 11 11
11 11 11 11 11 11 11 11 11
11 11 11 11 11 11 11 11 11
11 11 11 11 11 11 11 11 11
11 11 11 11 11 11 11 11 11
11 11 11 11 11 11 11 11 11
11 11 11 11 11 11 11 11 11
11 11 11 11 11 11 11 11 11
11 11 11 11 11 11 11 11 11
11 11 11 11 11 11 11 11 11
11 11 11 11 11 11 11 11 11
11 11 11 11 11 11 11 11 11
11 11 11 11 11 11 11 11 11