# vtk DataFile Version 3.0
vtk output
ASCII
DATASET POLYDATA
POINTS 5784 float
140.14589999999998 89.1466 67.937 137.1042 90.73675 68.3906 140.05689999999998 93.32835 69.5899 
137.3803 87.1613 67.24770000000001 143.57319999999999 92.00140999999999 69.80760000000001 142.9076 86.6878 67.53739999999999 
139.9109 84.6568 66.4636 134.3089 91.57582 68.7439 136.128 94.19077 69.5782 
134.6341 88.9866 68.0146 143.70170000000002 96.31053 71.9125 139.923 96.9052 71.28059999999999 
143.8302 99.47842 73.9221 146.77100000000002 98.61134 74.66 147.7134 94.97025 73.36 
132.36599999999999 93.44252 69.3156 131.4438 90.64469 68.75919999999999 136.3868 97.73196 71.0661 
140.3392 100.12125 73.2504 133.3598 95.89935 70.00829999999999 129.9865 95.6429 69.9235 
129.6014 92.90253 69.349 132.94650000000001 98.80709 71.1077 137.0795 101.01904 72.843 
129.5343 98.48337 70.7148 131.6754 101.53352 72.059 134.7845 102.21699 72.8299 
144.7775 102.33462 76.4881 141.5215 103.4835 75.6384 128.1592 100.31454 71.3586 
126.53020000000001 96.58315 70.173 135.55939999999998 105.89294 74.5706 131.1646 104.52259 73.27420000000001 
147.8716 101.02161 77.3022 150.0852 98.44787 77.4268 138.4699 104.65957 74.9375 
127.0735 93.636 69.598 142.2139 81.5758 65.9588 139.57670000000002 80.4721 65.4268 
137.3927 83.5272 66.1746 132.27870000000001 87.7014 67.9208 134.9785 85.9805 67.0761 
124.90469999999999 98.71808 70.8373 127.1365 103.06684 72.5336 129.106 88.5564 68.5959 
127.90180000000001 91.12832 69.1935 146.448 89.2087 69.8711 150.3029 91.016 73.0381 
151.9263 94.92591 76.9964 149.2433 103.5326 80.417 151.645 100.97603 80.91460000000001 
143.52190000000002 107.81976 78.4391 140.0019 108.41255 76.8677 141.6754 77.2219 65.158 
137.4443 80.3872 65.357 139.0008 76.6072 64.793 145.286 83.4646 67.3324 
144.3957 78.548 65.93039999999999 147.4897 80.4176 67.2835 143.9105 74.5721 65.4174 
146.5632 76.0067 66.1334 134.9783 82.7214 66.0386 148.815 85.8003 69.6185 
132.9462 85.3665 67.09270000000001 130.423 86.0332 67.72200000000001 125.3884 91.74599 69.4593 
125.5868 89.0046 69.1908 124.31309999999999 93.75624 69.7367 123.6284 95.8857 70.09479999999999 
121.5729 93.6202 69.986 123.1565 91.05875 69.6369 122.1335 97.01374 70.5327 
123.5386 100.34344 71.6041 146.3853 105.52115 79.3923 131.1399 108.24512 74.78280000000001 
124.9834 103.76912 73.0179 127.9313 107.66511 74.5647 139.5898 111.8791 77.8298 
134.911 109.52774 75.7345 143.6165 111.9005 79.6729 124.717 107.25345 74.7127 
122.48140000000001 102.1627 72.6252 137.7771 113.9932 77.8961 144.2222 115.844 81.2736 
141.1961 116.9391 80.1089 134.8127 113.291 77.0625 131.6293 112.7414 76.6114 
135.0557 117.48140000000001 78.6993 128.6006 112.7944 76.7159 132.02 117.5158 78.4892 
136.1912 78.7217 64.99090000000001 132.0007 83.5279 66.6395 133.5679 80.4376 65.54419999999999 
146.8121 111.429 81.679 147.4382 114.6194 83.1265 141.5452 73.4151 64.9645 
152.2952 87.3536 72.5795 153.6645 91.2621 76.50280000000001 148.5205 108.98339 82.4102 
127.39320000000001 86.2341 68.45660000000001 152.9423 103.52415 83.9845 150.7802 106.28283 83.3955 
138.25639999999999 117.6572 79.3702 153.5181 97.78527 80.8887 146.2415 72.33449999999999 65.9436 
143.8879 71.0819 65.5486 124.5605 85.8328 69.1902 122.6536 87.9534 69.6957 
120.86580000000001 98.65784 71.28190000000001 146.3923 68.68639999999999 66.50569999999999 141.8392 69.9323 65.3161 
144.17419999999998 67.626 66.189 137.1752 74.7831 64.5596 139.5491 72.3366 64.7264 
149.4471 77.3789 67.4165 148.3842 73.8027 66.5678 150.6406 73.2978 68.2272 
148.70510000000002 70.2225 67.2084 150.8333 82.3713 69.4001 152.15120000000002 77.9179 69.827 
129.1021 83.7716 67.4948 126.2734 83.4798 68.5127 142.3085 87.6791 76.2344 
138.7843 87.6393 75.2299 139.2421 85.447 73.2698 136.2129 86.1742 73.0461 
142.7859 84.9045 73.724 136.7289 83.4665 71.5397 139.8645 82.4728 71.3904 
120.7524 90.05365 70.0299 154.9284 94.37593 80.4529 119.6879 95.41982 70.47540000000001 
119.0013 92.09158 70.3203 141.5814 89.43469999999999 78.413 138.5925 89.1199 76.8698 
145.4641 89.8906 80.1305 140.39 90.66375 79.6581 144.5389 92.0214 82.6474 
154.6981 100.56057 84.2128 156.20510000000002 97.04575 84.3679 119.8903 100.64722 72.2812 
121.6048 104.16707 73.7012 118.3673 97.26485 71.14920000000001 117.1592 99.45443 72.03280000000001 
119.1237 103.49188 73.5445 150.4547 112.4537 85.2801 152.1447 109.10652999999999 85.9139 
125.6508 113.9887 77.3392 121.8224 108.98456 75.6291 144.7714 119.3408 82.9105 
147.6655 117.8151 84.4238 129.0597 118.6343 78.8841 134.74450000000002 120.8441 79.9333 
132.2812 122.145 80.1745 138.20170000000002 121.73740000000001 80.9659 141.7218 120.62219999999999 81.7761 
125.8069 120.7787 79.5091 122.7096 116.5741 78.1758 141.8547 123.3477 83.0511 
144.81369999999998 121.83 84.099 135.5636 124.1142 81.2565 138.8741 125.00319999999999 82.4788 
129.0256 124.3185 80.58879999999999 134.7427 76.7524 64.8509 153.4314 82.8108 72.462 
154.63 86.7674 76.0488 136.16989999999998 88.3082 74.7269 153.90890000000002 106.16433 86.4743 
132.5073 126.2216 81.4277 130.8236 81.144 66.41210000000001 122.3657 84.8091 70.0206 
146.0179 87.0662 77.3154 155.44819999999999 103.34309 86.8332 150.3091 115.9595 86.2495 
149.8932 118.4997 86.8526 147.5389 120.2277 85.4023 151.1794 68.0596 70.2107 
153.0214 72.6139 71.4739 120.6138 86.7311 70.4051 137.0004 90.14425 76.969 
152.4888 113.8285 88.1721 153.0123 111.2124 87.738 144.4291 123.4447 84.7221 
142.0325 125.2365 84.1402 132.2811 78.0179 65.5727 135.51839999999999 72.9267 64.8849 
133.2252 74.3864 65.38239999999999 137.6045 80.2036 70.3928 140.7609 78.4943 69.95439999999999 
142.8042 81.5791 71.6062 133.74450000000002 84.7825 71.8648 134.097 87.3081 73.1019 
129.0684 129.0709 81.5338 135.8996 126.9399 82.2868 132.6533 129.34890000000001 82.1883 
134.897 81.4629 70.8861 155.7526 90.23938 79.98570000000001 156.5516 93.25305 83.04429999999999 
117.3952 93.97442 70.6933 151.848 116.5353 88.517 124.96940000000001 127.7321 80.8417 
148.804 66.0496 68.4783 154.3765 77.6323 73.4334 156.70409999999998 100.49319 87.1949 
157.7185 93.46163 85.9994 157.86509999999998 97.16646 87.9919 154.4349 108.63938 88.4017 
149.29919999999998 120.1628 87.1729 151.03050000000002 118.68209999999999 88.67830000000001 137.7953 71.004 64.8023 
128.0291 80.9906 67.612 144.4614 78.3632 70.99719999999999 148.2948 78.5457 72.7942 
146.2485 82.66 74.1852 146.3768 74.7178 70.42060000000001 142.838 74.9279 69.4368 
149.9881 74.4597 72.3854 151.6672 78.3663 75.7036 150.0001 81.94800000000001 75.7911 
138.1457 77.1434 69.7947 139.864 74.6805 69.3475 152.708 73.3432 76.2059 
152.4933 82.6322 79.2382 154.2955 77.1567 81.178 135.8206 78.0817 70.39189999999999 
155.18189999999998 82.1529 75.6665 156.6959 84.3866 80.0055 156.4639 78.1871 77.9431 
149.5413 85.3091 78.3675 157.4601 89.35679999999999 83.68809999999999 158.5691 78.9198 83.1957 
159.1722 84.4137 86.0405 131.814 87.3333 72.6564 131.0097 84.6611 72.0972 
132.4724 82.2847 71.4679 149.0023 88.8065 81.3148 133.6147 89.6864 74.2909 
118.8355 88.5924 70.7572 148.40120000000002 91.80584999999999 83.98400000000001 151.5472 90.30479 84.844 
152.2347 86.7792 82.239 130.4078 90.09087 73.1834 129.0459 86.92 72.8552 
117.0972 90.51601 71.0415 131.8735 92.51244 74.488 129.3603 92.70798 73.4796 
127.9526 90.55945 73.179 135.119 92.04899 76.7398 139.0032 92.46501 80.3836 
130.4091 95.41624 74.89150000000001 127.584 93.97486 73.613 142.2923 92.80394 82.6931 
145.1989 95.26875 85.6506 148.0453 94.75421 86.4174 115.89920000000001 95.83173 71.22579999999999 
114.2639 97.87098 71.832 113.4253 93.98124 71.8358 115.4076 92.34906 71.3512 
133.4006 94.24454 76.3733 136.3922 94.42416 79.231 115.576 102.64558 73.1159 
111.7064 96.26921 72.0413 111.0874 93.23868 72.9111 113.7983 90.27735 72.6116 
112.249 91.22829 73.0295 133.78379999999999 96.81231 77.9713 130.8066 98.93933 76.7196 
127.8032 97.20589 74.6017 139.763 95.94634 82.9123 142.4424 95.4002 84.466 
112.1303 99.69788 72.2546 134.7158 101.25023 80.568 128.208 100.28787 76.1849 
131.14600000000002 102.16358 78.4513 111.9904 104.68418 73.2901 109.47346 100.40866 72.4779 
110.122 97.72421 72.2445 137.3847 97.89254 81.64699999999999 118.4748 107.03796 74.84270000000001 
115.8582 108.87406 75.0106 108.35552 104.13326 72.84819999999999 106.77689 100.28158 72.90180000000001 
108.11796 97.49749 72.8729 119.3473 112.8775 76.7442 154.4275 111.1663 89.9077 
109.97612 108.39874 73.5858 112.8168 111.7652 74.9431 109.7416 114.2728 74.4713 
107.24381 109.0779 73.2869 106.57788 115.895 73.9325 105.40634 104.09467 73.0478 
103.99239 109.79975 73.3634 116.233 116.5704 76.9745 119.6944 120.5638 78.7535 
112.7464 119.8476 76.39920000000001 109.2691 122.1372 75.46170000000001 122.7477 122.8533 79.789 
116.2887 125.9778 78.6117 112.3268 128.0435 77.34700000000001 147.2692 121.9571 86.3113 
120.5643 127.7875 80.0885 145.4095 123.92830000000001 85.9551 149.7477 120.58840000000001 88.4015 
148.03050000000002 122.482 87.8074 118.2184 133.0322 79.812 114.9705 132.32 78.7178 
138.7942 126.80160000000001 83.2003 108.74636 130.4915 76.5843 106.01068 123.44069999999999 74.7025 
112.497 134.59969999999998 78.3144 109.88995 137.3693 78.6334 105.21866 129.2045 75.5265 
105.92526 134.9167 77.2919 122.0974 133.2697 80.787 136.3503 129.0123 83.163 
140.3239 127.2415 84.2345 143.5052 125.6747 85.5536 115.886 136.7611 79.6634 
125.9335 132.8539 81.4611 119.6703 137.3282 80.7514 129.4218 132.2548 82.0172 
126.9721 135.3203 81.992 123.506 136.63049999999998 81.4743 116.7629 140.3701 81.0817 
113.3604 138.6376 79.612 132.4729 131.7013 82.6945 121.3772 139.6532 81.9171 
129.7419 133.9861 82.4274 128.4503 136.1413 82.7539 125.1192 138.12709999999998 82.38380000000001 
131.6483 133.8352 83.139 127.0836 138.4326 83.4337 130.4846 135.9954 83.7398 
123.5216 140.4996 83.1283 153.6789 67.8822 74.1476 152.3424 64.91919999999999 73.3168 
150.5623 63.6906 71.47 155.56459999999998 72.15 76.6248 130.6128 82.3439 72.1634 
[...]
CELL_DATA 11568
SCALARS part float
LOOKUP_TABLE default
19 19 19 19 19 19 19 19 19 
19 19 19 19 19 19 19 19 19 
19 19 19 19 19 19 19 19 19 
19 19 19 19 19 19 19 19 19 
19 19 19 19 19 19 19 19 19 
19 19 19 19 19 19 19 23 23 
19 23 19 23 23 23 19 19 19 
23 23 23 19 19 19 19 19 19 
19 19 19 19 19 19 23 23 23 
23 19 19 19 19 19 19 19 19 
23 23 23 19 19 23 23 23 23 
19 23 23 23 23 19 23 19 19 
23 23 19 19 19 19 19 19 19 
19 19 19 19 19 19 19 19 19 
19 19 19 19 19 19 19 19 19 
19 19 19 19 19 19 19 19 23 
23 23 23 23 19 19 19 23 23 
19 19 19 19 19 23 23 23 19 
19 19 19 19 23 19 19 19 23 
23 19 23 23 23 19 19 19 23 
23 23 23 23 23 23 19 19 19 
19 19 19 19 19 19 19 19 23 
23 23 23 19 19 19 19 19 19 
23 23 19 19 19 23 23 19 19 
19 19 19 19 19 19 19 19 19 
19 19 19 19 19 19 19 19 19 
19 19 19 19 19 19 19 19 19 
19 19 19 19 19 19 19 19 19 
19 19 19 19 19 19 19 19 19 
19 19 19 19 23 23 19 19 19 
19 19 19 19 19 19 19 23 23 
23 19 19 19 19 19 19 19 19 
23 19 19 19 23 23 19 19 19 
19 19 19 19 19 19 23 23 23 
23 19 19 19 19 19 19 19 19 
19 19 19 19 23 23 23 19 19 
19 23 23 19 19 19 19 19 23 
19 19 19 19 19 19 19 19 19 
19 19 19 19 23 23 23 23 19 
19 19 19 19 19 19 19 19 19 
23 23 23 23 19 19 19 19 19 
23 23 19 19 19 19 19 19 19 
19 19 19 19 19 19 19 23 23 
23 19 19 19 19 19 23 23 19 
19 19 19 19 23 23 23 23 19 
19 19 19 23 19 19 19 19 19 
19 19 19 19 19 19 19 23 23 
23 23 23 23 19 19 19 23 19 
19 23 23 23 23 23 19 19 19 
19 19 19 19 19 19 19 23 23 
19 19 19 19 23 23 23 23 19 
19 19 19 19 19 23 23 23 23 
23 19 19 19 19 23 23 23 19 
23 23 23 23 23 23 23 19 19 
19 19 19 19 19 19 19 19 19 
19 19 19 19 19 19 19 19 19 
19 19 19 19 19 19 19 19 19 
19 19 19 19 19 19 19 19 19 
19 19 19 19 19 19 19 19 19 
19 19 19 19 19 19 19 19 19 
19 19 19 19 19 19 19 19 19 
19 19 19 19 19 19 19 19 19 
19 19 19 19 19 19 19 19 19 
19 19 19 19 19 23 23 23 23 
23 23 23 23 23 19 19 19 19 
23 19 19 23 19 19 19 23 19 
19 19 19 19 19 19 19 19 23 
23 19 19 19 19 19 19 23 23 
19 19 23 19 19 23 23 19 19 
19 19 19 19 19 19 23 23 19 
19 19 19 19 19 19 19 19 19 
19 23 23 23 19 19 19 19 19 
19 19 19 19 19 23 23 23 23 
19 19 19 19 19 19 23 23 23 
19 19 23 19 19 19 19 19 23 
23 23 19 19 19 19 19 19 19 
19 19 19 19 23 23 23 23 23 
19 23 23 23 23 23 23 23 23 
23 23 19 19 19 19 23 23 19 
19 19 19 19 19 19 19 19 19 
19 19 19 19 19 19 19 19 19 
19 19 19 19 19 19 19 19 23 
23 23 23 23 19 19 19 19 19 
19 19 19 19 19 19 19 19 19 
19 19 19 19 19 19 23 23 19 
19 19 19 19 19 19 19 19 19 
19 19 19 19 19 19 19 23 23 
19 19 23 23 19 19 19 19 19 
23 23 23 23 23 19 19 19 19 
19 19 19 19 19 19 19 19 19 
19 23 23 19 19 19 19 19 19 
19 19 19 19 23 23 19 19 19 
19 23 23 23 23 19 19 23 23 
19 19 19 19 19 19 23 23 23 
23 23 23 23 23 23 19 19 19 
19 19 23 23 23 23 23 23 23 
19 23 23 23 19 23 23 19 19 
19 19 19 19 19 19 19 19 19 
19 19 19 19 19 23 23 23 23 
23 19 19 19 19 19 19 19 19 
19 19 19 19 19 19 19 19 19 
19 23 23 23 23 19 19 19 19 
19 19 23 19 19 19 19 19 23 
23 23 23 19 19 19 19 23 23 
19 19 19 19 19 19 19 23 23 
23 23 23 23 23 23 19 19 19 
19 23 23 23 23 23 23 19 19 
19 19 19 19 19 19 19 19 19 
19 19 19 19 19 19 19 19 19 
23 19 19 19 19 19 19 19 19 
19 19 19 19 19 19 19 19 19 
19 19 19 19 19 23 23 23 23 
23 23 23 23 23 23 19 23 23 
19 19 19 19 19 19 19 19 19 
19 19 19 19 23 19 19 19 19 
19 19 19 19 19 19 23 23 23 
23 23 19 19 19 19 19 19 19 
19 19 19 19 19 19 19 19 19 
19 19 19 19 23 23 19 19 19 
19 19 19 19 19 19 19 19 19 
19 19 19 23 23 23 23 19 19 
23 23 23 23 23 23 23 19 19 
23 23 23 23 23 19 19 19 19 
19 19 19 19 23 23 23 23 23 
23 23 23 19 19 19 19 19 19 
19 19 23 23 23 19 19 19 19 
23 23 19 19 19 19 19 19 19 
19 19 19 19 19 19 19 19 19 
19 19 19 19 19 19 19 19 19 
19 19 19 19 19 19 19 19 19 
19 19 19 19 19 19 19 19 19 
19 19 19 23 19 19 19 23 23 
23 19 19 23 23 23 19 19 19 
19 19 19 19 19 19 19 19 19 
19 19 19 23 23 23 23 19 19 
19 19 19 19 19 19 19 23 23 
23 19 23 23 19 19 19 19 19 
19 19 19 23 23 19 19 23 23 
23 19 19 19 19 19 19 19 19 
19 19 19 19 19 19 19 19 23 
19 19 19 19 19 19 19 19 19 
23 19 23 23 23 23 23 19 19 
19 19 19 19 19 19 19 19 23 
23 23 23 23 23 23 19 19 19 
19 23 23 19 23 19 19 19 19 
19 19 19 19 19 23 23 23 23 
23 23 23 23 19 19 19 23 23 
23 19 19 19 19 19 23 23 19 
19 19 19 19 23 23 23 23 19 
19 19 19 19 19 19 23 23 19 
23 19 23 23 23 19 19 19 19 
19 19 19 23 23 23 19 19 19 
19 19 19 19 19 19 19 19 19 
19 19 19 19 23 23 19 19 19 
19 19 19 19 19 19 19 19 19 
19 19 19 19 19 23 19 23 23 
23 19 19 19 19 19 19 23 23 
19 23 23 23 19 19 19 19 19 
19 19 19 19 19 19 19 19 19 
19 19 19 19 19 19 19 19 19 
19 19 23 23 19 19 19 19 19 
19 19 23 23 23 23 19 19 19 
19 19 19 23 19 19 19 19 19 
19 23 23 19 19 19 23 23 23 
23 23 19 19 19 19 23 23 23 
23 23 19 19 19 19 19 19 19 
19 19 23 23 23 19 19 19 19 
19 19 19 19 19 19 19 19 19 
23 23 19 23 23 23 19 19 19 
19 19 23 19 19 19 19 19 19 
19 19 19 19 19 23 19 23 23 
23 23 23 19 19 19 23 19 19 
19 19 19 19 19 23 23 19 19 
19 19 19 19 19 19 19 19 19 
19 19 19 19 19 23 19 19 23 
23 23 19 19 23 23 23 23 23 
23 23 23 23 23 23 23 23 23 
23 23 23 23 19 23 23 23 23 
23 19 19 23 19 19 19 19 19 
19 19 19 19 19 19 19 19 19 
19 19 19 19 19 19 19 19 19 
19 19 19 19 19 19 19 23 23 
23 19 19 19 23 23 23 23 19 
19 19 19 19 19 19 19 19 19 
23 23 23 23 23 23 23 23 23 
19 19 19 19 19 19 19 19 19 
19 19 19 19 23 23 23 23 23 
23 19 19 19 19 19 19 19 19 
19 19 19 19 19 19 23 23 19 
19 19 19 19 19 19 19 23 19 
19 19 19 19 19 19 23 23 19 
19 19 19 19 23 23 19 19 19 
19 19 19 19 19 19 19 19 19 
23 23 23 23 23 23 23 23 23 
19 19 19 19 19 19 19 19 19 
19 19 19 19 19 19 23 23 23 
19 19 19 19 19 19 23 23 23 
19 19 19 19 19 19 19 19 23 
23 23 19 19 19 19 19 19 19 
19 19 19 19 19 19 19 19 19 
19 19 19 19 19 19 19 19 19 
19 19 19 19 19 19 19 19 19 
19 19 19 19 19 19 23 23 23 
19 23 19 19 19 19 19 19 19 
19 19 19 19 19 19 19 19 19 
19 19 19 23 23 19 19 19 19 
19 23 23 23 19 19 19 19 19 
19 19 19 19 19 19 19 19 19 
23 23 23 23 19 19 19 19 19 
23 23 19 19 19 19 23 19 19 
19 19 19 19 19 23 23 23 19 
23 23 19 19 23 23 23 23 23 
19 19 19 19 19 19 19 19 19 
19 19 19 23 19 19 19 19 23 
19 23 19 19 19 19 19 19 19 
19 19 23 23 23 23 19 19 19 
19 19 23 23 19 23 23 23 23 
19 19 19 19 19 19 19 19 19 
19 19 19 19 19 19 19 19 19 
19 19 19 19 23 19 19 23 23 
23 23 19 19 23 23 23 19 19 
19 19 19 19 19 19 23 23 23 
23 23 19 23 23 19 19 19 19 
19 19 19 19 19 19 19 19 19 
19 19 19 19 19 23 23 19 19 
19 19 23 19 19 19 19 19 19 
19 19 19 19 19 19 19 19 19 
23 23 23 19 23 23 19 23 23 
23 23 19 19 19 19 19 19 19 
19 19 19 19 19 23 19 19 19 
19 19 19 19 19 19 19 19 23 
23 23 23 23 19 23 23 23 23 
23 19 19 19 19 19 19 19 19 
19 23 19 19 19 19 19 19 19 
23 23 19 19 19 19 23 23 23 
23 23 19 19 19 19 19 19 19 
19 19 19 19 19 19 19 19 23 
23 23 23 23 23 19 19 19 19 
19 19 19 19 23 23 19 19 19 
23 23 23 23 23 19 19 19 19 
19 19 19 19 19 19 19 19 19 
19 19 19 19 19 19 19 19 19 
19 19 23 23 19 19 23 23 23 
23 23 23 23 23 23 23 19 19 
19 19 19 19 19 19 19 19 19 
19 19 23 23 23 19 19 19 23 
23 23 23 23 23 23 19 19 19 
19 19 19 19 19 19 23 19 19 
19 19 19 19 19 19 19 19 23 
23 23 19 19 19 19 19 19 19 
19 19 19 19 19 19 19 19 19 
19 19 19 19 19 19 19 19 19 
19 19 19 19 19 19 19 19 23 
23 23 19 19 19 19 23 23 23 
23 23 23 23 23 23 23 23 23 
23 19 19 19 19 19 19 19 19 
19 23 23 23 23 23 23 23 23 
23 23 23 23 23 23 23 23 19 
19 19 19 19 19 19 19 19 19 
23 23 23 23 23 23 23 23 19 
19 19 19 19 19 19 19 19 19 
19 19 23 23 23 19 19 19 19 
23 23 23 23 23 19 19 19 23 
19 19 19 19 19 19 19 19 19 
19 19 19 19 19 19 19 19 23 
19 19 19 19 19 19 23 23 23 
23 23 23 23 23 23 19 19 19 
23 23 19 19 19 19 19 19 19 
19 19 19 19 23 23 19 19 19 
19 19 19 23 19 19 19 23 23 
19 19 19 19 19 19 19 23 19 
23 23 23 23 23 19 23 23 19 
23 23 19 19 19 19 19 19 19 
19 19 19 19 23 19 19 19 19 
23 23 19 19 23 19 19 19 19 
19 19 19 19 19 19 19 19 19 
19 23 19 19 19 23 23 19 23 
23 23 19 19 19 19 19 19 19 
19 19 19 19 19 19 19 19 19 
23 23 23 23 23 19 19 23 23 
23 19 19 19 23 23 23 23 23 
19 19 19 19 19 19 19 19 19 
19 19 19 19 19 19 19 19 19 
19 19 19 19 19 19 19 19 19 
19 23 23 23 23 23 23 23 19 
19 19 19 19 19 19 19 19 19 
19 23 23 23 19 19 19 19 19 
19 19 19 19 19 19 19 19 19 
19 19 19 19 19 23 19 19 19 
19 19 19 19 19 23 19 23 23 
19 19 19 19 19 19 19 19 19 
19 19 23 19 19 19 19 19 19 
19 19 23 19 19 19 19 19 19 
19 19 19 23 23 23 19 23 23 
23 23 23 23 23 19 19 19 19 
19 19 19 19 19 19 19 19 23 
23 19 19 19 19 19 19 19 19 
23 23 23 19 19 19 19 19 19 
19 19 19 19 23 23 23 23 19 
19 19 23 23 19 19 19 19 19 
19 19 19 19 19 19 19 19 23 
19 19 19 19 19 19 19 23 19 
19 19 23 23 23 23 23 19 19 
19 19 19 19 19 19 19 19 19 
19 19 19 19 19 19 19 19 19 
23 23 23 19 19 19 19 19 19 
19 19 23 19 19 19 19 19 19 
19 19 19 19 23 23 23 23 19 
23 23 19 23 23 19 19 19 19 
19 19 19 19 19 19 19 19 19 
19 19 19 19 19 23 23 23 19 
23 23 19 19 19 19 19 19 23 
23 23 23 23 23 19 19 19 19 
19 19 19 19 19 23 19 19 19 
19 19 19 19 19 23 23 19 19 
19 19 19 19 19 19 19 19 19 
23 23 23 23 23 23 19 19 19 
19 19 19 19 19 19 19 19 19 
19 19 19 19 19 19 19 23 23 
23 23 23 23 23 23 23 23 23 
23 23 23 19 19 23 23 19 19 
19 19 19 19 19 19 19 19 23 
23 23 23 23 19 19 19 19 19 
19 19 23 23 19 23 23 23 19 
19 19 19 19 19 19 19 19 19 
19 19 19 19 19 23 23 23 19 
23 23 23 19 19 19 19 19 19 
19 19 19 23 23 23 23 23 23 
23 23 23 19 19 23 23 23 23 
23 23 23 23 23 23 19 19 23 
19 23 19 19 19 19 19 19 19 
19 19 19 23 23 23 23 19 19 
19 23 19 19 19 19 19 23 19 
19 19 19 19 23 23 19 19 19 
23 23 23 23 23 23 19 19 19 
19 19 19 19 19 19 19 19 19 
19 19 19 19 23 19 19 23 19 
19 19 19 19 19 19 19 19 19 
19 23 23 23 23 23 23 23 23 
23 23 23 19 19 23 23 19 19 
19 19 19 19 19 19 19 19 23 
19 23 23 23 23 23 23 23 23 
23 23 23 23 19 19 19 19 19 
19 19 19 19 19 23 23 19 19 
23 23 23 23 23 23 19 19 19 
23 23 23 19 19 19 19 19 19 
19 19 19 19 19 23 23 23 23 
23 19 19 19 19 19 19 19 23 
19 19 19 19 19 19 19 19 19 
19 23 23 23 23 19 19 23 23 
23 19 19 19 19 19 19 19 19 
19 19 19 19 23 23 19 19 19 
19 19 23 19 19 19 19 19 19 
19 19 19 19 19 19 19 19 23 
19 19 19 23 23 19 19 19 19 
19 19 19 19 19 19 19 19 19 
19 19 19 19 19 19 19 19 19 
19 23 23 19 19 19 19 19 19 
19 19 19 19 19 19 19 19 19 
19 19 19 19 19 19 23 23 23 
23 23 23 23 23 19 19 19 19 
19 19 19 19 19 19 19 19 19 
19 19 19 19 19 19 19 19 19 
23 23 23 23 23 19 19 19 19 
19 19 19 19 19 19 19 19 19 
19 23 23 23 23 23 19 19 19 
23 23 19 19 19 19 19 19 19 
19 19 19 19 19 19 23 23 23 
23 23 23 23 19 19 19 19 19 
19 19 19 23 23 19 19 19 19 
19 19 19 19 19 19 19 19 19 
23 23 23 23 23 23 23 23 23 
23 23 23 23 19 23 19 19 19 
19 19 19 19 19 19 19 19 19 
19 23 23 19 19 19 19 23 23 
23 19 19 19 19 19 19 19 19 
19 19 23 23 23 23 23 23 19 
19 19 19 19 19 19 19 19 19 
19 19 23 23 23 23 23 23 23 
23 23 19 19 19 19 19 19 19 
19 19 19 19 23 23 19 19 19 
19 19 19 19 19 19 19 19 23 
23 19 23 23 23 23 23 23 23 
23 23 23 23 19 19 19 19 19 
19 19 19 23 19 19 23 19 19 
23 23 19 19 19 19 19 19 19 
19 19 19 19 19 19 19 23 23 
23 23 23 19 19 19 19 23 23 
23 23 23 23 23 23 23 23 23 
19 19 19 19 19 19 19 19 19 
19 19 19 23 19 23 23 23 19 
19 19 19 19 19 19 19 19 19 
19 19 19 19 19 19 19 23 23 
23 23 23 19 19 19 19 19 19 
19 19 19 19 19 19 19 19 19 
19 19 19 19 19 19 23 19 19 
19 19 19 19 19 19 19 19 19 
23 19 19 19 19 19 19 19 19 
19 19 19 19 19 19 19 19 19 
23 23 23 23 23 23 19 19 19 
19 19 19 19 19 19 19 19 23 
23 23 23 23 19 19 19 19 19 
19 19 19 19 19 19 19 19 19 
19 19 19 23 23 23 23 23 23 
23 19 19 19 19 19 19 19 19 
19 19 19 19 19 19 19 19 19 
23 23 19 19 19 23 23 19 19 
19 19 19 19 19 19 19 19 19 
19 19 19 19 19 23 23 23 23 
19 19 19 23 23 23 19 19 19 
19 19 19 19 19 19 19 23 19 
19 23 19 19 19 19 19 19 19 
23 23 23 23 23 19 19 19 19 
19 19 19 19 19 19 19 23 19 
23 23 23 23 19 19 19 19 19 
19 19 19 19 19 19 19 19 19 
23 23 23 23 23 23 23 23 23 
23 23 23 23 19 19 19 19 19 
19 19 19 19 19 19 23 23 23 
23 23 23 19 19 23 23 23 19 
19 19 19 19 19 19 19 19 19 
19 23 19 19 23 19 19 19 19 
19 19 19 19 19 19 19 23 23 
23 19 19 19 19 19 23 23 19 
19 19 19 19 19 19 19 19 19 
19 19 19 23 19 19 23 23 23 
23 23 23 23 23 19 19 19 19 
19 19 19 19 19 19 19 19 23 
23 19 19 19 19 19 19 19 19 
19 19 19 19 19 23 23 23 23 
23 23 23 23 23 19 19 23 19 
19 19 19 19 19 19 19 19 19 
19 19 19 19 19 23 23 23 23 
19 19 23 23 19 19 19 19 23 
23 19 19 19 19 19 19 19 19 
19 19 19 19 19 19 19 23 23 
23 23 23 23 23 23 19 19 19 
19 19 19 19 19 19 19 23 23 
19 19 19 19 19 23 23 23 19 
19 19 19 19 19 19 19 19 19 
23 23 23 19 19 19 19 19 19 
19 19 19 19 19 19 23 19 23 
23 19 19 19 19 23 23 23 19 
19 19 19 19 19 19 19 19 19 
19 23 23 23 19 19 23 19 19 
19 19 19 19 23 23 23 19 23 
19 19 19 23 23 23 23 23 23 
23 23 19 19 19 19 19 19 19 
19 19 19 19 19 23 23 23 23 
23 23 23 19 19 19 19 19 19 
19 19 19 19 19 23 23 23 23 
23 23 23 19 19 19 19 19 19 
19 19 19 19 19 19 19 23 23 
23 23 23 23 23 23 23 23 23 
19 19 19 19 19 19 19 19 19 
19 19 23 23 23 23 19 19 19 
19 19 19 19 23 23 19 19 19 
19 19 19 19 19 19 19 19 19 
23 23 23 19 23 19 19 23 23 
23 19 19 19 19 19 19 19 19 
19 19 19 19 23 23 23 23 19 
19 19 19 19 19 19 19 19 19 
19 23 19 19 19 19 19 19 19 
19 19 19 19 19 19 19 19 19 
19 19 19 19 19 19 19 19 19 
19 19 19 19 23 23 23 23 19 
19 19 19 19 19 19 19 19 19 
19 19 19 23 23 23 19 23 23 
23 19 23 19 19 19 19 19 19 
19 19 23 19 19 19 19 23 23 
19 19 19 19 19 19 23 19 19 
23 23 19 19 19 19 19 19 19 
19 19 19 23 23 23 23 19 19 
19 19 19 19 19 19 19 19 19 
19 19 19 23 23 19 19 19 23 
23 23 23 23 19 19 19 19 19 
19 19 19 19 19 19 19 23 23 
23 23 23 19 19 19 19 23 23 
23 23 19 19 19 19 19 19 19 
19 19 19 19 19 19 19 19 23 
23 23 23 23 23 23 19 23 19 
19 19 19 19 19 23 23 19 23 
19 23 19 19 19 19 19 19 19 
19 19 19 19 19 19 19 23 23 
23 19 19 19 19 19 19 19 19 
19 19 23 23 23 19 19 23 23 
19 19 19 19 19 19 19 19 19 
23 23 23 23 23 19 19 19 19 
19 19 19 19 23 19 19 19 23 
19 19 19 19 19 19 19 19 19 
19 19 19 19 19 19 19 19 19 
19 19 19 19 19 19 19 19 23 
23 19 19 23 23 23 23 23 19 
19 19 19 19 19 19 19 19 19 
23 23 23 19 19 19 19 19 19 
19 19 19 19 19 23 23 23 23 
23 23 23 23 23 23 23 19 19 
19 19 19 19 19 19 19 23 23 
23 23 23 23 23 23 23 23 19 
19 19 19 19 19 19 19 19 23 
23 23 23 23 23 19 19 19 19 
19 19 23 23 23 19 19 19 19 
19 19 19 19 23 23 23 23 23 
23 23 19 23 23 23 23 23 23 
23 19 19 19 19 19 19 19 19 
19 19 19 19 19 19 19 19 19 
19 19 19 19 19 19 19 19 19 
23 23 23 23 19 23 23 23 19 
19 19 19 19 19 19 23 23 23 
23 23 23 19 19 23 19 19 19 
19 19 19 19 23 23 23 23 23 
23 23 19 19 19 19 19 19 23 
23 23 23 23 19 19 19 19 19 
19 19 19 19 19 19 23 23 23 
19 19 19 19 23 23 19 19 19 
19 19 19 19 23 23 23 23 23 
23 23 19 19 19 19 19 23 19 
19 19 19 19 19 19 19 19 19 
19 19 23 23 23 23 23 23 23 
23 23 23 23 23 19 19 19 19 
19 19 19 19 19 19 23 23 23 
23 23 19 19 19 19 19 19 19 
19 19 19 19 23 23 23 23 23 
23 23 23 23 19 19 19 19 19 
19 19 19 19 19 19 23 23 23 
23 23 23 23 23 23 23 19 19 
19 19 19 19 19 19 19 23 23 
23 19 19 19 19 19 19 19 23 
23 23 23 19 19 19 19 19 19 
19 19 19 19 23 23 23 19 19 
19 19 23 23 23 23 19 23 23 
23 23 23 23 23 23 23 23 23 
23 23 19 19 19 19 19 19 19 
19 19 19 19 19 19 19 19 19 
19 19 19 19 19 23 23 23 23 
23 23 19 19 19 19 19 19 19 
19 19 19 19 23 23 23 19 19 
19 19 19 19 19 19 19 19 19 
23 23 23 23 19 19 19 19 19 
19 19 19 19 19 23 23 19 19 
19 19 19 19 19 19 19 23 23 
23 19 19 19 19 19 19 19 19 
19 19 23 19 23 23 23 23 23 
23 23 23 19 19 19 19 19 19 
19 19 19 19 19 19 19 19 19 
23 23 23 23 19 19 19 23 23 
23 23 19 19 19 19 19 19 19 
19 19 19 19 19 19 19 19 19 
23 23 23 23 23 23 23 23 23 
19 19 19 19 19 19 19 19 19 
19 19 19 19 19 19 19 19 19 
19 23 23 23 19 19 19 19 23 
23 19 19 19 19 19 19 19 19 
19 19 19 23 23 23 23 23 19 
19 19 19 19 19 19 19 19 19 
19 19 19 19 19 19 19 19 23 
19 19 19 19 19 19 19 19 23 
23 23 23 19 19 19 19 19 19 
19 19 19 19 19 23 19 23 23 
19 19 19 19 19 19 19 19 19 
19 19 19 23 23 19 19 23 23 
23 23 23 23 23 19 19 19 19 
19 19 19 19 19 19 23 23 23 
23 23 23 19 23 19 19 19 23 
23 23 19 19 19 19 19 23 23 
23 19 19 19 19 19 19 19 19 
19 19 19 19 19 19 19 19 19 
19 19 23 23 19 23 23 23 23 
19 19 19 19 19 19 19 19 19 
23 19 19 19 19 19 19 19 23 
23 19 19 19 23 23 23 19 19 
19 19 19 19 19 19 19 19 23 
23 19 19 19 19 19 19 19 19 
23 23 23 23 23 23 19 19 19 
19 19 19 19 19 19 23 23 23 
19 19 23 19 19 19 19 19 19 
23 23 23 23 19 19 19 19 19 
19 19 19 19 19 19 19 19 23 
19 19 19 19 19 19 19 19 23 
19 19 23 23 23 19 19 19 19 
19 19 19 19 19 19 23 19 19 
19 19 19 19 19 19 19 19 19 
19 23 19 19 19 19 19 19 19 
19 19 19 19 19 19 19 19 19 
19 19 19 19 19 19 19 19 19 
23 19 19 19 19 19 19 23 23 
23 23 23 19 19 19 19 23 19 
23 23 19 19 19 19 19 19 19 
19 23 23 19 19 19 19 19 19 
19 19 19 23 19 19 19 19 19 
19 19 23 23 23 19 19 19 19 
19 19 19 19 19 19 19 19 23 
23 23 19 19 19 19 19 19 19 
19 19 19 19 23 23 23 19 19 
19 19 19 19 19 19 19 19 19 
19 19 19 19 19 23 23 23 23 
19 19 19 19 19 19 19 19 19 
19 23 23 19 19 19 19 19 19 
19 19 19 19 19 19 19 19 19 
19 19 19 19 19 19 19 19 19 
19 19 19 19 19 19 19 19 19 
19 23 23 23 23 19 19 23 23 
19 23 19 19 19 19 23 23 19 
19 19 19 19 23 23 23 23 23 
23 23 19 19 19 19 19 19 19 
19 19 19 23 19 19 19 19 19 
19 19 23 19 19 19 19 19 19 
19 19 19 19 19 19 19 19 23 
23 23 19 19 19 19 23 19 19 
19 19 19 23 23 23 23 23 23 
19 19 19 19 19 19 19 19 19 
23 19 19 23 23 19 19 19 23 
23 23 23 23 19 19 23 23 23 
23 23 23 23 19 23 23 23 23 
23 23 23 19 23 23 23 19 23 
19 23 19 19 23 23 19 19 19 
23 19 19 23 23 23 19 19 19 
19 19 19 23 19 23 23 19 19 
19 19 19 19 19 19 19 11 11 
11 11 11 11 11 11 11 11 11 
11 11 11 11 11 11 11 11 11 
11 11 11 11 11 11 11 11 11 
11 11 11 11 11 11 11 11 11 
11 11 11 11 11 11 11 11 11 
11 11 11 11 11 11 11 11 11 
11 11 11 11 11 11 11 11 11 
11 11 11 11 11 11 11 11 11 
11 11 11 11 11 11 11 11 11 
11 11 11 11 11 11 11 11 11 
11 11 11 11 11 11 11 11 11 
11 11 11 11 11 11 11 11 11 
11 11 11 11 11 11 11 11 11 
11 11 11 11 11 11 11 11 11 
11 11 11 11 11 11 11 11 11 
11 11 11 11 11 11 11 11 11 
11 11 11 11 11 11 11 11 11 
11 11 11 11 11 11 11 11 11 
11 11 11 11 11 11 11 11 11 
11 11 11 11 11 11 11 11 11 
11 11 11 11 11 11 11 11 11 
11 11 11 11 11 11 11 11 11 
11 11 11 11 11 11 11 11 11 
11 11 11 11 11 11 11 11 11 
11 11 11 11 11 11 11 11 11 
11 11 11 11 11 11 11 11 11 
11 11 11 11 11 11 11 11 11 
11 11 11 11 11 11 11 11 11 
11 11 11 11 11 11 11 11 11 
11 11 11 11 11 11 11 11 11 
11 11 11 11 11 11 11 11 11 
11 11 11 11 11 11 11 11 11 
11 11 11 11 11 11 11 11 11 
11 11 11 11 11 11 11 11 11 
11 11 11 11 11 11 11 11 11 
11 11 11 11 11 11 11 11 11 
11 11 11 11 11 11 11 11 11 
11 11 11 11 11 11 11 11 11 
11 11 11 11 11 11 11 11 11 
11 11 11 11 11 11 11 11 11 
11 11 11 11 11 11 11 11 11 
11 11 11 11 11 11 11 11 11 
11 11 11 11 11 11 11 11 11 
11 11 11 11 11 11 11 11 11 
11 11 11 11 11 11 11 11 11 
11 11 11 11 11 11 11 11 11 
11 11 11 11 11 11 11 11 11 
11 11 11 11 11 11 11 11 11 
11 11 11 11 11 11 11 11 11 
11 11 11 11 11 11 11 11 11 
11 11 11 11 11 11 11 11 11 
11 11 11 11 11 11 11 11 11 
11 11 11 11 11 11 11 11 11 
11 11 11 11 11 11 11 11 11 
11 11 11 11 11 11 11 11 11 
11 11 11 11 11 11 11 11 11 
11 11 11 11 11 11 11 11 11 
11 11 11 11 11 11 11 11 11 
11 11 11 11 11 11 11 11 11 
11 11 11 11 11 11 11 11 11 
11 11 11 11 11 11 11 11 11 
11 11 11 11 11 11 11 11 11 
11 11 11 11 11 11 11 11 11 
11 11 11 11 11 11 11 11 11 
11 11 11 11 11 11 11 11 11 
11 11 11 11 11 11 11 11 11 
11 11 11 11 11 11 11 11 11 
11 11 11 11 11 11 11 11 11 
11 11 11 11 11 11 11 11 11 
11 11 11 11 11 11 11 11 11 
11 11 11 11 11 11 11 11 11 
11 11 11 11 11 11 11 11 11 
11 11 11 11 11 11 11 11 11 
11 11 11 11 11 11 11 11 11 
11 11 11 11 11 11 11 11 11 
11 11 11 11 11 11 11 11 11 
11 11 11 11 11 11 11 11 11 
11 11 11 11 11 11 11 11 11 
11 11 11 11 11 11 11 11 11 
11 11 11 11 11 11 11 11 11 
11 11 11 11 11 11 11 11 11 
11 11 11 11 11 11 11 11 11 
11 11 11 11 11 11 11 11 11 
11 11 11 11 11 11 11 11 11 
11 11 11 11 11 11 11 11 11 
11 11 11 11 11 11 11 11 11 
11 11 11 11 11 11 11 11 11 
11 11 11 11 11 11 11 11 11 
11 11 11 11 11 11 11 11 11 
11 11 11 11 11 11 11 11 11 
11 11 11 11 11 11 11 11 11 
11 11 11 11 11 11 11 11 11 
11 11 11 11 11 11 11 11 11 