# vtk DataFile Version 3.0
vtk output
ASCII
DATASET POLYDATA
POINTS 5784 float
36.8509 -22.9329 -51.0635 32.0403 -22.8739 -50.01 35.3684 -20.8344 -51.0776
33.4953 -24.5879 -49.7856 40.5961 -20.7695 -52.0143 41.3007 -23.4553 -52.0332
37.7683 -25.0637 -50.8878 27.7703 -23.0583 -49.0571 29.644 -21.1575 -50.1266
28.8813 -24.4205 -48.6479 39.2684 -18.3506 -51.7321 33.9573 -18.7231 -51.0082
38.2631 -16.1044 -51.2717 42.7725 -15.8871 -51.8016 45.5654 -17.8017 -52.4511
24.7492 -22.3033 -48.7644 24.0265 -24.1662 -47.5053 29.0394 -18.8097 -50.4937
33.4292 -16.3172 -50.8136 25.5799 -20.57 -49.6757 21.4631 -21.1693 -48.4267
21.3568 -23.0323 -47.4411 24.5133 -18.5479 -49.8292 29.0956 -16.2275 -50.5331
20.5935 -19.1577 -48.8176 22.6207 -16.5859 -49.5585 26.1297 -15.6737 -50.2605
38.5259 -13.3905 -50.5887 34.0216 -13.3413 -50.4749 18.875 -17.7504 -48.3388
17.4987 -20.7028 -47.3431 26.5882 -12.6114 -50.1631 21.7183 -14.1715 -49.1475
43.4665 -13.3278 -50.9493 48.183 -13.9838 -51.4161 30.1295 -13.0998 -50.4758
18.3596 -22.7713 -46.6708 41.621 -25.8779 -51.7938 38.1702 -27.0882 -50.6364
34.3888 -26.3786 -49.6417 25.7446 -25.7583 -47.193 30.1562 -25.9516 -48.4506
15.6397 -18.9666 -46.8878 17.553 -15.3753 -47.5416 21.3621 -25.8169 -45.69
19.5615 -24.3405 -46.0191 45.475 -21.4878 -52.9208 50.7548 -19.3624 -52.9525
52.4869 -15.514 -51.5791 44.685 -10.2251 -49.586 49.812 -10.5904 -49.6342
35.8983 -9.43147 -50.0019 31.65 -9.88636 -50.3616 41.7429 -27.9452 -51.4458
35.003 -27.9704 -49.6407 37.9063 -29.1853 -50.1921 45.298 -24.5395 -52.8682
45.1487 -26.9323 -52.6226 48.8217 -25.9223 -53.4229 45.1951 -28.7961 -52.3505
48.2934 -28.0144 -53.2766 30.8065 -27.7662 -48.3652 49.6297 -22.9857 -53.4425
27.1977 -26.9718 -47.2932 23.495 -27.1762 -45.8672 16.7111 -24.0906 -45.2279
17.1971 -25.8209 -44.0376 15.4228 -22.7408 -45.6382 14.578 -21.1655 -46.0348
12.7279 -22.6632 -44.3064 14.4649 -24.5168 -43.909 13.0482 -20.1042 -45.3952
14.1858 -17.3897 -45.9507 39.9146 -10.0985 -49.7018 21.4492 -11.1129 -48.6318
15.3716 -14.5063 -46.0762 18.0727 -11.4753 -46.9953 31.1828 -7.24924 -50.1095
25.6833 -9.81324 -49.7671 35.8737 -6.39249 -49.7528 14.982 -11.3502 -44.8609
13.121 -15.49 -44.7159 29.2272 -5.84108 -49.77 36.7548 -3.13617 -49.0194
33.5284 -2.82125 -49.2539 25.6808 -6.76567 -49.2062 21.9955 -7.38356 -47.9737
26.5154 -3.13436 -48.3264 18.7646 -7.21263 -46.1776 23.0105 -3.27646 -47.0735
33.2693 -29.4423 -48.9436 26.1289 -28.3537 -46.596 28.9434 -29.6378 -47.376
39.7428 -5.68331 -48.9288 40.3949 -3.11352 -48.237 42.1361 -29.7696 -51.1627
54.378 -21.0596 -52.71 55.9185 -17.2156 -51.1454 42.2589 -6.56167 -48.5043
19.6059 -27.4259 -43.9593 50.9486 -7.48101 -47.5952 46.274 -7.07035 -47.9851
30.313 -2.62096 -49.0111 54.255 -11.7812 -49.4213 48.2566 -29.558 -53.061
45.5331 -30.3699 -52.1149 16.4474 -27.7336 -41.7817 14.2464 -26.4169 -41.8263
11.7954 -18.4388 -44.5084 48.5257 -30.9241 -52.7708 42.8495 -31.4487 -51.0056
45.9305 -31.8962 -51.8946 35.2835 -31.0662 -49.0843 39.2669 -31.1291 -50.0542
51.7021 -27.2024 -53.5688 50.6471 -28.7963 -53.5292 53.6109 -28.2636 -53.1968
51.1971 -29.8785 -53.2248 52.9666 -24.5662 -53.4038 55.4803 -25.7998 -52.8531
22.0906 -28.7471 -44.4507 18.6476 -29.0803 -41.8099 39.4056 -18.7757 -43.7208
34.1779 -19.9819 -41.7694 36.2701 -21.4422 -43.1559 31.2846 -22.4133 -41.3633
41.663 -20.7656 -45.6147 33.4903 -23.7676 -42.2425 38.6572 -23.0601 -44.636
12.2185 -24.9764 -42.0385 57.2378 -13.453 -48.9891 10.8811 -21.0359 -43.8149
10.4652 -23.3997 -42.1693 37.0907 -17.2584 -41.99 32.8619 -18.7379 -40.8879
42.7711 -15.844 -43.8676 34.4976 -16.4018 -40.7207 40.1259 -13.9726 -41.839
55.155 -8.40683 -47.1314 58.3993 -9.81041 -46.3781 10.9039 -16.3292 -43.3998
12.3167 -13.4117 -43.4884 9.6623 -19.1713 -43.1137 8.6508 -16.8165 -42.2094
10.2768 -13.4624 -42.3068 44.4762 -3.20315 -47.0137 47.753 -4.27078 -46.4327
16.0189 -5.86598 -44.0819 12.492 -9.2881 -42.6642 37.8429 0.06716 -47.9156
40.786 -0.43769 -47.3709 20.0317 -2.26117 -45.3048 27.017 -0.04411 -47.3372
24.5744 1.02935 -46.1302 31.3642 1.2652 -47.7287 34.9118 0.6805 -48.0744
17.2219 -0.24528 -43.4474 13.6808 -3.35942 -42.3433 36.0291 3.65291 -46.8803
38.5288 2.66182 -46.8038 29.2436 3.40298 -46.5858 33.5772 5.01067 -46.5049
21.6143 2.94639 -44.5095 31.2556 -31.1648 -47.642 56.8575 -22.5032 -52.0657
58.0593 -18.8224 -50.4702 29.9651 -20.8603 -40.6923 51.6748 -4.8468 -45.7661
26.5401 5.29444 -45.3509 24.7848 -30.0166 -45.2072 14.3148 -28.1588 -39.2082
45.1103 -18.1504 -46.0631 55.4556 -5.58944 -45.1954 44.0071 -0.76165 -46.4085
43.5733 1.23279 -45.7952 41.0002 1.84518 -46.4432 54.7047 -29.3712 -52.1824
57.4077 -26.7074 -51.6436 12.4129 -26.9016 -39.387 30.0165 -18.7301 -40.2725
47.6017 -0.83686 -44.9339 48.8445 -2.24978 -45.1577 38.76 4.51829 -45.9843
37.1906 6.15623 -45.7355 27.3179 -31.3838 -45.5998 33.0408 -32.7701 -47.2288
29.3299 -32.9009 -45.1361 36.1847 -25.0015 -43.1131 41.325 -24.869 -45.9711
43.0557 -22.8466 -46.9294 28.244 -24.6055 -40.1615 27.6166 -22.8491 -40.42
23.5248 7.91752 -44.0556 31.1575 6.79714 -45.7435 28.4248 9.09255 -44.7559
31.4266 -25.6719 -40.6062 59.0466 -15.0876 -48.4134 59.6065 -12.0675 -46.7701
8.95922 -21.7216 -41.9815 46.478 0.85473 -44.6228 18.0543 5.9756 -42.9811
51.2994 -31.184 -52.6576 58.9494 -23.5064 -50.7963 58.4106 -6.55129 -44.6134
60.8189 -10.192 -44.6778 60.4775 -7.46307 -43.6298 52.0326 -2.71291 -44.3259
43.1163 2.69237 -45.2433 45.4651 2.40295 -44.2277 36.7513 -32.7385 -48.7332
21.0898 -30.4162 -42.2288 46.1351 -24.3376 -48.6942 50.7224 -23.6349 -49.7013
47.1639 -21.2835 -48.1621 49.0909 -26.181 -50.1404 44.9309 -26.3301 -48.2111
53.432 -25.4109 -50.1639 54.9768 -22.0081 -48.5154 52.0825 -20.7412 -48.6314
37.9957 -26.1761 -43.395 41.1357 -26.796 -45.0961 57.2552 -23.8855 -48.0812
54.9096 -18.4357 -46.6594 58.4275 -19.9849 -44.9249 34.1476 -26.5984 -40.7151
59.4418 -20.4777 -49.9051 60.7712 -17.1642 -47.2972 61.4638 -20.8778 -47.8917
50.5258 -18.0829 -47.2211 61.0321 -13.1748 -45.6918 63.4731 -18.6139 -44.6508
63.1112 -14.5206 -43.4901 24.5358 -23.9186 -39.3945 24.3923 -25.7382 -37.727
27.3043 -26.4288 -38.1763 48.4899 -15.2287 -45.2595 25.9218 -21.375 -40.2491
10.6141 -25.5432 -39.4398 46.2517 -12.8838 -43.1985 51.3502 -12.5321 -43.451
53.392 -15.2421 -45.0612 22.0226 -22.6793 -39.731 21.3046 -24.8216 -36.8721
8.95192 -24.0105 -39.5077 23.0329 -20.3446 -40.802 20.3277 -21.3064 -40.6154
19.2603 -22.904 -38.4963 26.8093 -18.5052 -40.4096 31.6489 -15.5776 -40.1881
20.8942 -18.7814 -41.3339 18.3099 -20.7121 -40.2434 36.3073 -13.8999 -40.6203
39.8838 -11.3826 -40.779 44.4982 -10.7854 -41.4581 7.6581 -19.82 -41.4633
6.34005 -17.5294 -40.8935 5.81506 -20.5293 -38.701 7.43825 -22.3588 -39.3723
24.2258 -18.0093 -40.9853 27.5929 -15.7244 -40.5369 7.41177 -13.4501 -41.3573
4.40986 -18.1285 -39.0786 4.22472 -20.0683 -35.7236 6.45893 -23.0367 -35.4895
5.25996 -21.8497 -34.7609 24.0948 -15.6429 -41.1855 20.7623 -15.5911 -41.5412
18.1083 -18.1209 -41.217 31.6794 -12.7941 -40.2266 35.6784 -12.1128 -40.2618
4.65753 -15.2572 -40.5483 24.6222 -11.7629 -41.1449 18.1727 -15.2252 -41.1303
20.8034 -12.6845 -41.2444 4.45253 -10.9252 -41.1619 2.58159 -13.7658 -40.064
3.16341 -16.3303 -39.1825 28.1562 -12.6829 -40.6793 9.76708 -10.2239 -41.5436
7.60777 -8.30814 -41.1915 1.49864 -10.4433 -41.1012 0.58135 -12.7281 -38.9907
1.76815 -15.5373 -37.6562 10.5709 -5.74664 -41.4685 51.7805 -0.78771 -43.1482
2.58508 -7.74026 -41.9899 4.93503 -5.75036 -41.7648 2.16381 -3.5877 -42.8588
0.26618 -6.62743 -42.3602 -0.58613 -1.83911 -43.6342 -0.78476 -9.37526 -40.4804
-2.34356 -5.02172 -42.1241 7.98386 -2.6587 -41.5263 11.3826 0.01866 -41.6803
4.85287 -0.03445 -42.5691 1.69956 2.0184 -43.6771 14.6171 1.65981 -42.2686
8.49155 4.29415 -42.2064 4.66347 6.12425 -43.027 41.215 3.82615 -45.3553
13.1284 5.79657 -42.1357 40.0471 5.66476 -44.9427 44.0571 3.75788 -44.0133
42.4712 5.17756 -43.8957 11.193 10.4728 -42.255 7.56925 9.66847 -42.5264
34.5799 7.36041 -45.6973 1.34857 8.76307 -43.2023 -1.17277 3.69343 -44.1567
5.28025 12.0749 -42.4651 3.34859 15.9263 -41.4181 -1.86256 8.66964 -43.3871
-0.68732 14.2764 -41.5925 15.8847 11.2034 -42.4356 33.1385 9.80101 -44.9405
36.6548 8.55815 -44.9996 39.0323 7.45603 -44.5965 9.23368 14.4001 -42.0671
20.8031 11.5514 -43.0689 13.8433 15.5297 -42.0246 25.4504 11.8368 -43.7694
23.1682 14.9724 -42.8955 18.6742 15.533 -42.3565 11.6228 19.7754 -41.1069
7.09204 16.9846 -41.5352 29.6132 12.2346 -44.1399 17.0475 19.4161 -41.4988
26.7643 14.2878 -43.4066 25.7846 16.8532 -42.5348 21.5934 18.3228 -41.9398
29.6645 15.0425 -43.2767 24.7887 19.9688 -41.2836 28.992 17.8709 -42.0624
20.6126 21.9281 -40.7116 58.7968 -27.684 -49.9073 56.6279 -29.6691 -50.388
53.7577 -31.1323 -51.3844 61.3418 -24.428 -48.3602 24.6446 -26.9267 -35.7826
22.3978 -26.5282 -34.3857 26.6034 -27.617 -35.123 23.8429 -27.6488 -32.2761
18.6231 -24.4562 -33.678 20.4179 -25.9677 -32.7599 16.502 -17.3951 -40.357
16.4948 -19.7084 -39.1323 6.97838 21.1841 -40.2299 34.4095 -34.4004 -46.4651
51.2638 -27.7554 -50.7254 47.3236 -27.7425 -49.4653 18.7639 -11.2541 -40.2195
16.2647 -15.0662 -39.4751 -3.00522 0.20071 -43.7009 -3.6129 5.56429 -43.6684
33.1905 12.9424 -43.9497 40.2895 -32.8547 -49.8243 55.166 -26.885 -49.9318
49.281 -10.2933 -41.8141 2.95103 -17.916 -36.5482 22.9646 -8.89141 -40.6553
2.07903 21.8157 -39.1393 43.401 -33.1462 -50.8212 63.6487 -21.6786 -45.4471
61.7286 -26.6194 -46.9024 64.4289 -24.1453 -43.8229 57.1711 -15.926 -43.5607
17.2317 -22.1503 -36.922 55.536 -3.34436 -43.6752 55.4623 -1.4567 -42.4236
36.2213 11.0176 -44.2257 16.2175 23.5572 -40.2011 59.2113 -28.9295 -47.8692
55.9971 -30.9276 -49.1307 30.0129 -27.1451 -37.9746 7.95683 -24.5906 -35.648
49.7357 0.66 -43.1079 41.1727 6.82204 -43.6901 38.5071 9.45492 -44.0232
40.1566 8.34153 -43.5662 32.9407 15.7666 -42.8479 37.8145 -34.4377 -48.2559
48.5969 -32.3659 -52.3239 52.643 -28.9602 -50.3325 56.0359 -28.0057 -48.5878
58.1323 -25.7909 -47.6568 48.9475 -29.0221 -49.7101 43.9457 -27.6056 -47.0931
[...]
CELL_DATA 11568
SCALARS part float
LOOKUP_TABLE default
19 19 19 19 19 19 19 19 19
19 19 19 19 19 19 19 19 19
19 19 19 19 19 19 19 19 19
19 19 19 19 19 19 19 19 19
19 19 19 19 19 19 19 19 19
19 19 19 19 19 19 19 23 23
19 23 19 23 23 23 19 19 19
23 23 23 19 19 19 19 19 19
19 19 19 19 19 19 23 23 23
23 19 19 19 19 19 19 19 19
23 23 23 19 19 23 23 23 23
19 23 23 23 23 19 23 19 19
23 23 19 19 19 19 19 19 19
19 19 19 19 19 19 19 19 19
19 19 19 19 19 19 19 19 19
19 19 19 19 19 19 19 19 23
23 23 23 23 19 19 19 23 23
19 19 19 19 19 23 23 23 19
19 19 19 19 23 19 19 19 23
23 19 23 23 23 19 19 19 23
23 23 23 23 23 23 19 19 19
19 19 19 19 19 19 19 19 23
23 23 23 19 19 19 19 19 19
23 23 19 19 19 23 23 19 19
19 19 19 19 19 19 19 19 19
19 19 19 19 19 19 19 19 19
19 19 19 19 19 19 19 19 19
19 19 19 19 19 19 19 19 19
19 19 19 19 19 19 19 19 19
19 19 19 19 23 23 19 19 19
19 19 19 19 19 19 19 23 23
23 19 19 19 19 19 19 19 19
23 19 19 19 23 23 19 19 19
19 19 19 19 19 19 23 23 23
23 19 19 19 19 19 19 19 19
19 19 19 19 23 23 23 19 19
19 23 23 19 19 19 19 19 23
19 19 19 19 19 19 19 19 19
19 19 19 19 23 23 23 23 19
19 19 19 19 19 19 19 19 19
23 23 23 23 19 19 19 19 19
23 23 19 19 19 19 19 19 19
19 19 19 19 19 19 19 23 23
23 19 19 19 19 19 23 23 19
19 19 19 19 23 23 23 23 19
19 19 19 23 19 19 19 19 19
19 19 19 19 19 19 19 23 23
23 23 23 23 19 19 19 23 19
19 23 23 23 23 23 19 19 19
19 19 19 19 19 19 19 23 23
19 19 19 19 23 23 23 23 19
19 19 19 19 19 23 23 23 23
23 19 19 19 19 23 23 23 19
23 23 23 23 23 23 23 19 19
19 19 19 19 19 19 19 19 19
19 19 19 19 19 19 19 19 19
19 19 19 19 19 19 19 19 19
19 19 19 19 19 19 19 19 19
19 19 19 19 19 19 19 19 19
19 19 19 19 19 19 19 19 19
19 19 19 19 19 19 19 19 19
19 19 19 19 19 19 19 19 19
19 19 19 19 19 19 19 19 19
19 19 19 19 19 23 23 23 23
23 23 23 23 23 19 19 19 19
23 19 19 23 19 19 19 23 19
19 19 19 19 19 19 19 19 23
23 19 19 19 19 19 19 23 23
19 19 23 19 19 23 23 19 19
19 19 19 19 19 19 23 23 19
19 19 19 19 19 19 19 19 19
19 23 23 23 19 19 19 19 19
19 19 19 19 19 23 23 23 23
19 19 19 19 19 19 23 23 23
19 19 23 19 19 19 19 19 23
23 23 19 19 19 19 19 19 19
19 19 19 19 23 23 23 23 23
19 23 23 23 23 23 23 23 23
23 23 19 19 19 19 23 23 19
19 19 19 19 19 19 19 19 19
19 19 19 19 19 19 19 19 19
19 19 19 19 19 19 19 19 23
23 23 23 23 19 19 19 19 19
19 19 19 19 19 19 19 19 19
19 19 19 19 19 19 23 23 19
19 19 19 19 19 19 19 19 19
19 19 19 19 19 19 19 23 23
19 19 23 23 19 19 19 19 19
23 23 23 23 23 19 19 19 19
19 19 19 19 19 19 19 19 19
19 23 23 19 19 19 19 19 19
19 19 19 19 23 23 19 19 19
19 23 23 23 23 19 19 23 23
19 19 19 19 19 19 23 23 23
23 23 23 23 23 23 19 19 19
19 19 23 23 23 23 23 23 23
19 23 23 23 19 23 19 19 19
19 19 19 19 19 19 19 19 19
19 19 19 19 23 23 23 19 19
19 19 19 19 19 19 19 19 19
19 19 19 19 19 19 19 23 23
23 23 19 19 19 19 19 19 23
19 19 19 19 19 23 23 23 23
19 19 19 19 23 23 19 19 19
19 19 19 19 23 23 23 23 23
23 23 23 19 19 19 19 23 23
23 23 23 23 19 19 19 19 19
19 19 19 19 19 19 19 19 19
19 19 19 19 19 19 23 19 19
19 19 19 19 19 19 19 19 19
19 19 19 19 19 19 19 19 19
19 19 23 23 23 23 23 23 23
23 23 23 19 23 23 19 19 19
19 19 19 19 19 19 19 19 19
19 23 19 19 19 19 19 19 19
19 19 19 23 23 23 23 23 19
19 19 19 19 19 19 19 19 19
19 19 19 19 19 19 19 19 19
19 23 23 19 19 19 19 19 19
19 19 19 19 19 19 19 19 19
23 23 23 23 19 19 23 23 23
23 23 23 23 19 19 23 23 23
23 23 19 19 19 19 19 19 19
19 23 23 23 23 23 23 23 23
19 19 19 19 19 19 19 19 23
23 23 19 19 19 19 23 23 19
19 19 19 19 19 19 19 19 19
19 19 19 19 19 19 19 19 19
19 19 19 19 19 19 19 19 19
19 19 19 19 19 19 19 19 19
19 19 19 19 19 19 19 19 19
23 19 19 19 23 23 23 19 19
23 23 23 19 19 19 19 19 19
19 19 19 19 19 19 19 19 19
23 23 23 23 19 19 19 19 19
19 19 19 19 23 23 23 19 23
23 19 19 19 19 19 19 19 19
23 23 19 19 23 23 23 19 19
19 19 19 19 19 19 19 19 19
19 19 19 19 19 23 19 19 19
19 19 19 19 19 19 23 19 23
23 23 23 23 19 19 19 19 19
19 19 19 19 19 23 23 23 23
23 23 23 19 19 19 19 23 23
19 23 19 19 19 19 19 19 19
19 19 23 23 23 23 23 23 23
23 19 19 19 23 23 23 19 19
19 19 19 23 23 19 19 19 19
19 23 23 23 23 19 19 19 19
19 19 19 23 23 19 23 19 23
23 23 19 19 19 19 19 19 19
23 23 23 19 19 19 19 19 19
19 19 19 19 19 19 19 19 19
19 23 23 19 19 19 19 19 19
19 19 19 19 19 19 19 19 19
19 19 23 19 23 23 23 19 19
19 19 19 19 23 23 19 23 23
23 19 19 19 19 19 19 19 19
19 19 19 19 19 19 19 19 19
19 19 19 19 19 19 19 19 23
23 19 19 19 19 19 19 19 23
23 23 23 19 19 19 19 19 19
23 19 19 19 19 19 19 23 23
19 19 19 23 23 23 23 23 19
19 19 19 23 23 23 23 23 19
19 19 19 19 19 19 19 19 23
23 23 19 19 19 19 19 19 19
19 19 19 19 19 19 23 23 19
23 23 23 19 19 19 19 19 23
19 19 19 19 19 19 19 19 19
19 19 23 19 23 23 23 23 23
19 19 19 23 19 19 19 19 19
19 19 23 23 19 19 19 19 19
19 19 19 19 19 19 19 19 19
19 19 23 19 19 23 23 23 19
19 23 23 23 23 23 23 23 23
23 23 23 23 23 23 23 23 23
23 19 23 23 23 23 23 19 19
23 19 19 19 19 19 19 19 19
19 19 19 19 19 19 19 19 19
19 19 19 19 19 19 19 19 19
19 19 19 19 23 23 23 19 19
19 23 23 23 23 19 19 19 19
19 19 19 19 19 19 23 23 23
23 23 23 23 23 23 19 19 19
19 19 19 19 19 19 19 19 19
19 23 23 23 23 23 23 19 19
19 19 19 19 19 19 19 19 19
19 19 19 23 23 19 19 19 19
19 19 19 19 23 19 19 19 19
19 19 19 23 23 19 19 19 19
19 23 23 19 19 19 19 19 19
19 19 19 19 19 19 23 23 23
23 23 23 23 23 23 23 19 19
19 19 19 19 19 19 19 19 19
19 19 19 19 23 23 23 19 19
19 19 19 19 23 23 23 19 19
19 19 19 19 19 19 23 23 23
19 19 19 19 19 19 19 19 19
19 19 19 19 19 19 19 19 19
19 19 19 19 19 19 19 19 19
19 19 19 19 19 19 19 19 19
19 19 19 19 23 23 23 19 23
19 19 19 19 19 19 19 19 19
19 19 19 19 19 19 19 19 19
19 23 23 19 19 19 19 19 23
23 23 19 19 19 19 19 19 19
19 19 19 19 19 19 19 23 23
23 23 19 19 19 19 19 23 23
19 19 19 19 23 19 19 19 19
19 19 19 23 23 23 19 23 23
19 19 23 23 23 23 23 19 19
19 19 19 19 19 19 19 19 19
19 23 19 19 19 19 23 19 23
19 19 19 19 19 19 19 19 19
23 23 23 23 19 19 19 19 19
23 23 19 23 23 23 23 23 19
19 19 19 19 19 19 19 19 19
19 19 19 19 19 19 19 19 19
19 19 19 23 19 19 23 23 23
23 19 19 23 23 23 19 19 19
19 19 19 19 19 23 23 23 23
23 19 23 23 19 19 19 19 19
19 19 19 19 19 19 19 19 19
19 19 19 19 23 23 19 19 19
19 23 19 19 19 19 19 19 19
19 19 19 19 19 19 19 19 23
23 23 19 23 23 19 23 23 23
23 19 19 19 19 19 19 19 19
19 19 19 19 23 19 19 19 19
19 19 19 19 19 19 19 23 23
23 23 23 19 23 23 23 23 23
19 19 19 19 19 19 19 19 19
23 19 19 19 19 19 19 19 23
23 19 19 19 19 23 23 23 23
23 19 19 19 19 19 19 19 19
19 19 19 19 19 19 19 23 23
23 23 23 23 19 19 19 19 19
19 19 19 23 23 19 19 19 23
23 23 23 23 19 19 19 19 19
19 19 19 19 19 19 19 19 19
19 19 19 19 19 19 19 19 19
19 23 23 19 19 23 23 23 23
23 23 23 23 23 23 19 19 19
19 19 19 19 19 19 19 19 19
19 23 23 23 19 19 19 23 23
23 23 23 23 23 19 19 19 19
19 19 19 19 19 23 19 19 19
19 19 19 19 19 19 19 23 23
23 19 19 19 19 19 19 19 19
19 19 19 19 19 19 19 19 19
19 19 19 19 19 19 19 19 19
19 19 19 19 19 19 19 23 23
23 19 19 19 19 23 23 23 23
23 23 23 23 23 23 23 23 23
23 19 19 19 19 19 19 19 19
19 23 23 23 23 23 23 23 23
23 23 23 23 23 23 23 23 19
19 19 19 19 19 19 19 19 19
23 23 23 23 23 23 23 23 19
19 19 19 19 19 19 19 19 19
19 19 23 23 23 19 19 19 19
23 23 23 23 23 19 19 19 23
19 19 19 19 19 19 19 19 19
19 19 19 19 19 19 19 19 23
19 19 19 19 19 19 23 23 23
23 23 23 23 23 23 19 19 19
23 23 19 19 19 19 19 19 19
19 19 19 19 23 23 19 19 19
19 19 19 23 19 19 19 23 23
19 19 19 19 19 19 19 23 19
23 23 23 23 23 19 23 23 19
23 23 19 19 19 19 19 19 19
19 19 19 19 23 19 19 19 19
23 23 19 19 23 19 19 19 19
19 19 19 19 19 19 19 19 19
19 23 19 19 19 23 23 19 23
23 23 19 19 19 19 19 19 19
19 19 19 19 19 19 19 19 19
23 23 23 23 23 19 19 23 23
23 19 19 19 23 23 23 23 23
19 19 19 19 19 19 19 19 19
19 19 19 19 19 19 19 19 19
19 19 19 19 19 19 19 19 19
19 23 23 23 23 23 23 23 19
19 19 19 19 19 19 19 19 19
19 23 23 23 19 19 19 19 19
19 19 19 19 19 19 19 19 19
19 19 19 19 19 23 19 19 19
19 19 19 19 19 23 23 19 23
23 19 19 19 19 19 19 19 19
19 19 19 23 19 19 19 19 19
19 19 19 23 19 19 19 19 19
19 19 19 19 23 23 23 19 23
23 23 23 23 23 23 19 19 19
19 19 19 19 19 19 19 19 19
23 23 19 19 19 19 19 19 19
19 23 23 23 19 19 19 19 19
19 19 19 19 19 23 23 23 23
19 19 19 23 23 19 19 19 19
19 19 19 19 19 19 19 19 19
23 19 19 19 19 19 19 19 23
19 19 19 23 23 23 23 23 19
19 19 19 19 19 19 19 19 19
19 19 19 19 19 19 19 19 19
19 23 23 23 19 19 19 19 19
19 19 19 23 19 19 19 19 19
19 19 19 19 19 23 23 23 23
19 23 23 19 23 23 19 19 19
19 19 19 19 19 19 19 19 19
19 19 19 19 19 19 23 23 23
19 23 23 19 19 19 19 19 19
23 23 23 23 23 23 19 19 19
19 19 19 19 19 19 23 19 19
19 19 19 19 19 19 23 23 19
19 19 19 19 19 19 19 19 19
19 23 23 23 23 23 23 19 19
19 19 19 19 19 19 19 19 19
19 19 19 19 19 19 19 19 23
23 23 23 23 23 23 23 23 23
23 23 23 23 19 19 23 23 19
19 19 19 19 19 19 19 19 19
23 23 23 23 23 19 19 19 19
19 19 19 23 23 19 23 23 23
19 19 19 19 19 19 19 19 19
19 19 19 19 19 19 23 23 23
19 23 23 23 19 19 19 19 19
19 19 19 19 23 23 23 23 23
23 23 23 23 19 19 23 23 23
23 23 23 23 23 23 23 19 19
23 19 23 19 19 19 19 19 19
19 19 19 19 23 23 23 23 19
19 19 23 19 19 19 19 19 23
19 19 19 19 19 23 23 19 19
19 23 23 23 23 23 23 19 19
19 19 19 19 19 19 19 19 19
19 19 19 19 19 23 19 19 23
19 19 19 19 19 19 19 19 19
19 19 23 23 23 23 23 23 23
23 23 23 23 19 19 23 23 19
19 19 19 19 19 19 19 19 19
23 19 23 23 23 23 23 23 23
23 23 23 23 23 19 19 19 19
19 19 19 19 19 19 23 23 19
19 23 23 23 23 23 23 19 19
19 23 23 23 19 19 19 19 19
19 19 19 19 19 19 23 23 23
23 23 19 19 19 19 19 19 19
23 19 19 19 19 19 19 19 19
19 19 23 23 23 23 19 19 23
23 23 19 19 19 19 19 19 19
19 19 19 19 19 23 23 19 19
19 19 19 23 19 19 19 19 19
19 19 19 19 19 19 19 19 19
23 19 19 19 23 23 19 19 19
19 19 19 19 19 19 19 19 19
19 19 19 19 19 19 19 19 19
19 19 23 23 19 19 19 19 19
19 19 19 19 19 19 19 19 19
19 19 19 19 19 19 19 23 23
23 23 23 23 19 19 19 19 19
19 19 19 19 19 19 19 19 19
19 19 19 19 19 19 19 19 23
23 23 23 23 19 19 19 19 19
19 19 19 19 19 19 19 19 19
23 23 23 23 23 19 19 19 23
23 19 19 19 19 19 19 19 19
19 19 19 19 19 23 23 23 23
23 23 23 19 19 19 19 19 19
19 19 23 23 19 19 19 19 19
19 19 19 19 19 19 19 19 23
23 23 23 23 23 23 23 23 23
23 23 23 19 23 19 19 19 19
19 19 19 19 19 19 19 19 19
23 23 19 19 19 19 23 23 23
19 19 19 19 19 19 19 19 19
19 23 23 23 23 23 23 19 19
19 19 19 19 19 19 19 19 19
19 23 23 23 23 23 23 23 23
23 19 19 19 19 19 19 19 19
19 19 19 23 23 19 19 19 19
19 19 19 19 19 19 19 23 23
19 23 23 23 23 23 23 23 23
23 23 23 19 19 19 19 19 19
19 19 23 19 19 23 19 19 23
23 19 19 19 19 19 19 19 19
19 19 19 19 19 19 23 23 23
23 23 19 19 19 19 23 23 23
23 23 23 23 23 23 23 23 19
19 19 19 19 19 19 19 19 19
19 19 23 19 23 23 23 19 19
19 19 19 19 19 19 19 19 19
19 19 19 19 19 19 23 23 23
23 23 19 19 19 19 19 19 19
19 19 19 19 19 19 19 19 19
19 19 19 19 19 23 19 19 19
19 19 19 19 19 19 19 19 23
19 19 19 19 19 19 19 19 19
19 19 19 19 19 19 19 19 23
23 23 23 23 23 19 19 19 19
19 19 19 19 19 19 19 23 23
23 23 23 19 19 19 19 19 19
19 19 19 19 19 19 19 19 19
19 19 23 23 23 23 23 23 23
19 19 19 19 19 19 19 19 19
19 19 19 19 19 19 19 19 23
23 19 19 19 23 23 19 19 19
19 19 19 19 19 19 19 19 19
19 19 19 19 23 23 23 23 19
19 19 23 23 23 19 19 19 19
19 19 19 19 19 19 23 19 19
23 19 19 19 19 19 19 19 23
23 23 23 23 19 19 19 19 19
19 19 19 19 19 19 23 19 23
23 23 23 19 19 19 19 19 19
19 19 19 19 19 19 19 19 23
23 23 23 23 23 23 23 23 23
23 23 23 19 19 19 19 19 19
19 19 19 19 19 23 23 23 23
23 23 19 19 23 23 23 19 19
19 19 19 19 19 19 19 19 19
23 19 19 23 19 19 19 19 19
19 19 19 19 19 19 23 23 23
19 19 19 19 19 23 23 19 19
19 19 19 19 19 19 19 19 19
19 19 23 19 19 23 23 23 23
23 23 23 23 19 19 19 19 19
19 19 19 19 19 19 19 23 23
19 19 19 19 19 19 19 19 19
19 19 19 19 23 23 23 23 23
23 23 23 23 19 19 23 19 19
19 19 19 19 19 19 19 19 19
19 19 19 19 23 23 23 23 19
19 23 23 19 19 19 19 23 23
19 19 19 19 19 19 19 19 19
19 19 19 19 19 19 23 23 23
23 23 23 23 23 19 19 19 19
19 19 19 19 19 19 23 23 19
19 19 19 19 23 23 23 19 19
19 19 19 19 19 19 19 19 23
23 23 19 19 19 19 19 19 19
19 19 19 19 19 23 19 23 23
19 19 19 19 23 23 23 19 19
19 19 19 19 19 19 19 19 19
23 23 23 19 19 23 19 19 19
19 19 19 23 23 23 19 23 19
19 19 23 23 23 23 23 23 23
23 19 19 19 19 19 19 19 19
19 19 19 19 23 23 23 23 23
23 23 19 19 19 19 19 19 19
19 19 19 19 23 23 23 23 23
23 23 19 19 19 19 19 19 19
19 19 19 19 19 19 23 23 23
23 23 23 23 23 23 23 23 19
19 19 19 19 19 19 19 19 19
19 23 23 23 23 19 19 19 19
19 19 19 23 23 19 19 19 19
19 19 19 19 19 19 19 19 23
23 23 19 23 19 19 23 23 23
19 19 19 19 19 19 19 19 19
19 19 19 23 23 23 23 19 19
19 19 19 19 19 19 19 19 19
23 19 19 19 19 19 19 19 19
19 19 19 19 19 19 19 19 19
19 19 19 19 19 19 19 19 19
19 19 19 23 23 23 23 19 19
19 19 19 19 19 19 19 19 19
19 19 23 23 23 19 23 23 23
19 23 19 19 19 19 19 19 19
19 23 19 19 19 19 23 23 19
19 19 19 19 19 23 19 19 23
23 19 19 19 19 19 19 19 19
19 19 23 23 23 23 19 19 19
19 19 19 19 19 19 19 19 19
19 19 23 23 19 19 19 23 23
23 23 23 19 19 19 19 19 19
19 19 19 19 19 19 23 23 23
23 23 19 19 19 19 23 23 23
23 19 19 19 19 19 19 19 19
19 19 19 19 19 19 19 23 23
23 23 23 23 23 19 23 19 19
19 19 19 19 23 23 19 23 19
23 19 19 19 19 19 19 19 19
19 19 19 19 19 19 23 23 23
19 19 19 19 19 19 19 19 19
19 23 23 23 19 19 23 23 19
19 19 19 19 19 19 19 19 23
23 23 23 23 19 19 19 19 19
19 19 19 23 19 19 19 23 19
19 19 19 19 19 19 19 19 19
19 19 19 19 19 19 19 19 19
19 19 19 19 19 19 19 23 23
19 19 23 23 23 23 23 19 19
19 19 19 19 19 19 19 19 23
23 23 19 19 19 19 19 19 19
19 19 19 19 23 23 23 23 23
23 23 23 23 23 23 19 19 19
19 19 19 19 19 19 23 23 23
23 23 23 23 23 23 23 19 19
19 19 19 19 19 19 19 23 23
23 23 23 23 19 19 19 19 19
19 23 23 23 19 19 19 19 19
19 19 19 23 23 23 23 23 23
23 19 23 23 23 23 23 23 23
19 19 19 19 19 19 19 19 19
19 19 19 19 19 19 19 19 19
19 19 19 19 19 19 19 19 23
23 23 23 19 23 23 23 19 19
19 19 19 19 19 23 23 23 23
23 23 19 19 23 19 19 19 19
19 19 19 23 23 23 23 23 23
23 19 19 19 19 19 19 23 23
23 23 23 19 19 19 19 19 19
19 19 19 19 19 23 23 23 19
19 19 19 23 23 19 19 19 19
19 19 19 23 23 23 23 23 23
23 19 19 19 19 19 23 19 19
19 19 19 19 19 19 19 19 19
19 23 23 23 23 23 23 23 23
23 23 23 23 19 19 19 19 19
19 19 19 19 19 23 23 23 23
23 19 19 19 19 19 19 19 19
19 19 19 23 23 23 23 23 23
23 23 23 19 19 19 19 19 19
19 19 19 19 19 23 23 23 23
23 23 23 23 23 23 19 19 19
19 19 19 19 19 19 23 23 23
19 19 19 19 19 19 19 23 23
23 23 19 19 19 19 19 19 19
19 19 19 23 23 23 19 19 19
19 23 23 23 23 19 23 23 23
23 23 23 23 23 23 23 23 23
23 19 19 19 19 19 19 19 19
19 19 19 19 19 19 19 19 19
19 19 19 19 23 23 23 23 23
23 19 19 19 19 19 19 19 19
19 19 19 23 23 23 19 19 19
19 19 19 19 19 19 19 19 23
23 23 23 19 19 19 19 19 19
19 19 19 19 23 23 19 19 19
19 19 19 19 19 19 23 23 23
19 19 19 19 19 19 19 19 19
19 23 19 23 23 23 23 23 23
23 23 19 19 19 19 19 19 19
19 19 19 19 19 19 19 19 23
23 23 23 19 19 19 23 23 23
23 19 19 19 19 19 19 19 19
19 19 19 19 19 19 19 19 23
23 23 23 23 23 23 23 23 19
19 19 19 19 19 19 19 19 19
19 19 19 19 19 19 19 19 19
23 23 23 19 19 19 19 23 23
19 19 19 19 19 19 19 19 19
19 19 23 23 23 23 23 19 19
19 19 19 19 19 19 19 19 19
19 19 19 19 19 19 19 23 19
19 19 19 19 19 19 19 23 23
23 23 19 19 19 19 19 19 19
19 19 19 19 23 19 23 23 19
19 19 19 19 19 19 19 19 19
19 19 23 23 19 19 23 23 23
23 23 23 23 19 19 19 19 19
19 19 19 19 19 23 23 23 23
23 23 19 23 19 19 19 23 23
23 19 19 19 19 19 23 23 23
19 19 19 19 19 19 19 19 19
19 19 19 19 19 19 19 19 19
19 23 23 19 23 23 23 23 19
19 19 19 19 19 19 19 19 23
19 19 19 19 19 19 19 23 23
19 19 19 23 23 23 19 19 19
19 19 19 19 19 19 19 23 23
19 19 19 19 19 19 19 19 23
23 23 23 23 23 19 19 19 19
19 19 19 19 19 23 23 23 19
19 23 19 19 19 19 19 19 23
23 23 23 19 19 19 19 19 19
19 19 19 19 19 19 19 23 19
19 19 19 19 19 19 19 23 19
19 23 23 23 19 19 19 19 19
19 19 19 19 19 23 19 19 19
19 19 19 19 19 19 19 19 19
23 19 19 19 19 19 19 19 19
19 19 19 19 19 19 19 19 19
19 19 19 19 19 19 19 19 23
19 19 19 19 19 19 23 23 23
23 23 19 19 19 19 23 19 23
23 19 19 19 19 19 19 19 19
23 23 19 19 19 19 19 19 19
19 19 23 19 19 19 19 19 19
19 23 23 23 19 19 19 19 19
19 19 19 19 19 19 19 23 23
23 19 19 19 19 19 19 19 19
19 19 19 23 23 23 19 19 19
19 19 19 19 19 19 19 19 19
19 19 19 19 23 23 23 23 19
19 19 19 19 19 19 19 19 19
23 23 19 19 19 19 19 19 19
19 19 19 19 19 19 19 19 19
19 19 19 19 19 19 19 19 19
19 19 19 19 19 19 19 19 19
23 23 23 23 19 19 23 23 19
23 19 19 19 19 23 23 19 19
19 19 19 23 23 23 23 23 23
23 19 19 19 19 19 19 19 19
19 19 23 19 19 19 19 19 19
19 23 19 19 19 19 19 19 19
19 19 19 19 19 19 19 23 23
23 19 19 19 19 23 19 19 19
19 19 23 23 23 23 23 23 19
19 19 19 19 19 19 19 19 23
19 19 23 23 19 19 19 23 23
23 23 23 19 19 23 23 23 23
23 23 23 19 23 23 23 23 23
23 23 19 23 23 23 19 23 19
23 19 19 23 23 19 19 19 23
19 19 23 23 23 19 19 19 19
19 19 23 19 23 23 19 19 19
19 19 19 19 19 19 11 11 11
11 11 11 11 11 11 11 11 11
11 11 11 11 11 11 11 11 11
11 11 11 11 11 11 11 11 11
11 11 11 11 11 11 11 11 11
11 11 11 11 11 11 11 11 11
11 11 11 11 11 11 11 11 11
11 11 11 11 11 11 11 11 11
11 11 11 11 11 11 11 11 11
11 11 11 11 11 11 11 11 11
11 11 11 11 11 11 11 11 11
11 11 11 11 11 11 11 11 11
11 11 11 11 11 11 11 11 11
11 11 11 11 11 11 11 11 11
11 11 11 11 11 11 11 11 11
11 11 11 11 11 11 11 11 11
11 11 11 11 11 11 11 11 11
11 11 11 11 11 11 11 11 11
11 11 11 11 11 11 11 11 11
11 11 11 11 11 11 11 11 11
11 11 11 11 11 11 11 11 11
11 11 11 11 11 11 11 11 11
11 11 11 11 11 11 11 11 11
11 11 11 11 11 11 11 11 11
11 11 11 11 11 11 11 11 11
11 11 11 11 11 11 11 11 11
11 11 11 11 11 11 11 11 11
11 11 11 11 11 11 11 11 11
11 11 11 11 11 11 11 11 11
11 11 11 11 11 11 11 11 11
11 11 11 11 11 11 11 11 11
11 11 11 11 11 11 11 11 11
11 11 11 11 11 11 11 11 11
11 11 11 11 11 11 11 11 11
11 11 11 11 11 11 11 11 11
11 11 11 11 11 11 11 11 11
11 11 11 11 11 11 11 11 11
11 11 11 11 11 11 11 11 11
11 11 11 11 11 11 11 11 11
11 11 11 11 11 11 11 11 11
11 11 11 11 11 11 11 11 11
11 11 11 11 11 11 11 11 11
11 11 11 11 11 11 11 11 11
11 11 11 11 11 11 11 11 11
11 11 11 11 11 11 11 11 11
11 11 11 11 11 11 11 11 11
11 11 11 11 11 11 11 11 11
11 11 11 11 11 11 11 11 11
11 11 11 11 11 11 11 11 11
11 11 11 11 11 11 11 11 11
11 11 11 11 11 11 11 11 11
11 11 11 11 11 11 11 11 11
11 11 11 11 11 11 11 11 11
11 11 11 11 11 11 11 11 11
11 11 11 11 11 11 11 11 11
11 11 11 11 11 11 11 11 11
11 11 11 11 11 11 11 11 11
11 11 11 11 11 11 11 11 11
11 11 11 11 11 11 11 11 11
11 11 11 11 11 11 11 11 11
11 11 11 11 11 11 11 11 11
11 11 11 11 11 11 11 11 11
11 11 11 11 11 11 11 11 11
11 11 11 11 11 11 11 11 11
11 11 11 11 11 11 11 11 11
11 11 11 11 11 11 11 11 11
11 11 11 11 11 11 11 11 11
11 11 11 11 11 11 11 11 11
11 11 11 11 11 11 11 11 11
11 11 11 11 11 11 11 11 11
11 11 11 11 11 11 11 11 11
11 11 11 11 11 11 11 11 11
11 11 11 11 11 11 11 11 11
11 11 11 11 11 11 11 11 11
11 11 11 11 11 11 11 11 11
11 11 11 11 11 11 11 11 11
11 11 11 11 11 11 11 11 11
11 11 11 11 11 11 11 11 11
11 11 11 11 11 11 11 11 11
11 11 11 11 11 11 11 11 11
11 11 11 11 11 11 11 11 11
11 11 11 11 11 11 11 11 11
11 11 11 11 11 11 11 11 11
11 11 11 11 11 11 11 11 11
11 11 11 11 11 11 11 11 11
11 11 11 11 11 11 11 11 11
11 11 11 11 11 11 11 11 11
11 11 11 11 11 11 11 11 11
11 11 11 11 11 11 11 11 11
11 11 11 11 11 11 11 11 11
11 11 11 11 11 11 11 11 11
11 11 11 11 11 11 11 11 11
11 11 11 11 11 11 11 11 11
11 11 11 11 11 11 11 11 11
11 11 11 11 11 11 11 11 11
11 11 11 11 11 11 11 11 11
11 11 11 11 11 11 11 11 11
11 11 11 11 11 11 11 11 11
11 11 11 11 11 11 11 11 11
11 11 11 11 11 11 11 11 11
11 11 11 11 11 11 11 11 11
11 11 11 11 11 11 11 11 11
11 11 11 11 11 11 11 11 11
11 11 11 11 11 11 11 11 11
11 11 11 11 11 11 11 11 11
11 11 11 11 11 11 11 11 11
11 11 11 11 11 11 11 11 11
11 11 11 11 11 11 11 11 11
11 11 11 11 11 11 11 11 11
11 11 11 11 11 11 11 11 11
11 11 11 11 11 11 11 11 11
11 11 11 11 11 11 11 11 11
11 11 11 11 11 11 11 11 11
11 11 11 11 11 11 11 11 11
11 11 11 11 11 11 11 11 11
11 11 11 11 11 11 11 11 11
11 11 11 11 11 11 11 11 11
11 11 11 11 11 11 11 11 11
11 11 11 11 11 11 11 11 11
11 11 11 11 11 11 11 11 11