# vtk DataFile Version 3.0
vtk output
ASCII
DATASET POLYDATA
POINTS 5785 float
125.9451 74.816 62.3607 121.0061 76.94409999999999 64.4981 124.9903 79.1225 63.2779 
121.7935 73.4176 64.1319 131.8527 77.9556 61.4292 132.1873 72.7312 60.4331 
126.4312 70.7188 61.9963 117.523 78.5044 66.1263 119.5851 80.76310000000001 65.29339999999999 
117.9652 75.8986 66.05340000000001 130.6318 82.7433 62.9007 124.3573 83.3471 64.3664 
130.0335 87.0427 64.5438 135.8397 87.1722 64.1 140.0776 84.1024 63.3105 
115.5287 80.7984 66.97919999999999 114.4663 78.3529 67.7676 119.99889999999999 84.77250000000001 65.72030000000001 
124.8901 87.672 65.53710000000001 116.6815 83.1049 66.4964 113.63589999999999 83.5204 67.8154 
112.9379 80.8988 68.2803 116.7322 86.5125 66.9349 121.1713 88.8731 66.42490000000001 
113.8559 86.6855 67.9384 116.30539999999999 89.913 67.70779999999999 119.1032 90.38245 67.116 
131.15030000000002 91.77147 66.5241 126.67060000000001 92.42229 66.9639 113.4935 89.2159 68.6066 
111.3036 85.3121 69.004 120.6609 94.59988 67.95400000000001 116.8593 93.57267 68.5185 
136.719 91.62893 66.37989999999999 142.7314 91.22637 67.21350000000001 123.264 93.32742999999999 67.3601 
111.0207 82.1611 69.1668 132.0399 68.252 60.2282 126.5141 67.1957 62.2357 
122.2245 70.0681 64.0817 115.2281 75.2813 67.63900000000001 118.5315 72.85849999999999 65.908 
111.0754 88.3067 69.6298 114.012 92.97822 69.5237 112.0291 76.9801 69.338 
111.2817 79.6487 69.36959999999999 140.0622 77.1301 61.1018 148.3139 83.9954 65.80709999999999 
149.0426 91.18139 69.6456 137.9722 96.49281 69.3109 143.41660000000002 96.37428 70.7827 
129.5699 97.92759 68.8195 125.50319999999999 97.46353 68.4188 131.81119999999999 64.68260000000001 60.6141 
122.6074 67.2767 64.1833 125.9096 64.0521 63.1652 139.3078 71.2187 59.7895 
138.5279 66.6853 59.2768 146.0623 70.8887 60.6101 138.3786 63.3329 59.2357 
145.0472 66.5081 59.3342 118.6665 69.6708 66.02420000000001 147.347 76.8875 62.7945 
115.9556 72.7265 67.3509 113.1027 74.139 68.9633 109.44074 80.7885 70.2244 
109.11243999999999 78.3216 70.95230000000001 109.15007 82.9662 70.14959999999999 109.34300999999999 85.3874 70.07679999999999 
107.54798 83.7277 71.2711 107.79747 80.7706 71.3193 109.04982 87.303 70.67920000000001 
111.205 90.96982 70.4491 133.32229999999998 96.87114 68.84870000000001 118.0277 97.71272 69.4801 
113.4209 94.75226 70.6048 116.21770000000001 98.11799 70.4447 125.706 100.74126 69.3447 
120.9776 98.37785 68.9705 130.0938 101.81014 69.9191 114.8897 99.03289 71.7098 
111.8082 93.92914999999999 71.3888 124.4757 102.55078 69.8937 131.4356 105.77722 71.1334 
128.4931 105.80014 70.91839999999999 121.9351 102.07658 70.0423 119.771 102.20211 70.65180000000001 
123.4868 106.08967 71.35589999999999 118.3551 103.20587 71.6882 121.634 106.68744 72.0238 
120.6678 65.8894 65.4921 114.758 71.1137 68.16550000000001 116.7659 67.71940000000001 67.4221 
133.9263 102.99458 70.904 134.9367 106.33732 71.8877 132.3777 61.6673 61.0219 
153.48239999999998 84.2351 69.5588 154.1735 91.39905 73.36789999999999 136.0996 101.88435 71.2263 
110.1908 75.3441 70.8144 143.89170000000001 100.63506 73.7574 139.5309 101.02542 72.0958 
125.99510000000001 106.09479 71.0642 149.4958 97.13186 73.429 145.147 63.5713 58.9196 
139.2501 60.7141 59.2644 107.84856 76.0064 72.6953 106.86132 78.3184 72.77629999999999 
109.35405 90.01481 71.4065 146.2902 61.3318 59.0322 134.0116 59.0188 61.0764 
140.8279 58.4192 59.2618 122.5985 62.5488 65.46690000000001 127.75710000000001 60.6065 63.3517 
151.3759 71.49940000000001 62.7584 150.0196 67.4003 60.6733 154.7194 71.65129999999999 65.45830000000001 
151.5197 65.93430000000001 61.3771 152.55939999999998 77.3347 65.8792 155.9788 77.57900000000001 69.4311 
111.5452 72.4541 70.3362 108.91208 73.4785 72.6768 129.7614 81.8974 70.11670000000001 
124.634 82.1246 71.3145 125.2428 78.0725 69.608 121.213 79.3156 71.4459 
131.4018 77.2274 67.67869999999999 121.8589 75.4537 70.485 126.59270000000001 73.7223 67.8518 
106.14492 80.6836 72.7791 154.4595 97.39484 76.52629999999999 107.31173 86.44800000000001 71.8026 
105.80031 83.2045 72.843 128.6153 85.9064 72.2992 124.66290000000001 85.2614 72.5121 
135.0353 86.7285 72.7715 127.3378 88.7828 73.6608 133.1224 90.88052 74.93469999999999 
149.2615 101.46405 76.1148 154.6331 102.00492 79.635 110.1455 93.1934 72.2201 
112.5638 96.9105 72.294 107.70146 89.3702 72.3873 108.48167 92.83439 73.0709 
111.3526 97.15071 73.0496 138.5411 106.49057 73.2101 141.0625 104.94092 74.1997 
117.5928 105.3803 73.0337 114.5377 102.0499 73.2114 132.7999 109.50386 72.3055 
135.5938 109.57638 72.7182 120.535 108.4872 73.1548 124.5238 109.36115 72.5308 
123.4762 110.9744 73.381 127.4482 110.1774 72.5401 130.1371 109.64881 72.24510000000001 
119.6443 111.2624 74.4549 117.1136 108.63762 74.37180000000001 131.2546 112.7278 73.3098 
133.5468 112.2799 73.23310000000001 126.3924 112.586 73.5217 129.3342 113.8554 73.7137 
122.3111 113.594 74.5094 118.5536 64.2952 67.40639999999999 156.6206 83.7932 73.0894 
157.04590000000002 89.9718 76.7754 121.45400000000001 82.9256 72.2991 144.4725 104.29379 75.8531 
125.0792 114.9456 74.4207 113.2822 69.3012 69.7154 106.20739 76.162 74.7524 
137.6721 82.2957 70.4611 148.8513 104.79778 77.8246 138.4527 109.60070999999999 73.6567 
138.2158 111.8456 74.024 135.9032 112.0714 73.42699999999999 156.86 70.7909 68.5563 
158.0948 77.0827 73.3955 105.43084 78.2076 74.6523 122.9807 86.741 73.1053 
141.46620000000001 109.63912 75.4195 142.2688 107.77413 75.5558 133.7202 114.0641 73.8498 
132.18869999999998 115.2132 74.1363 115.0827 65.96600000000001 69.5706 119.976 61.1901 68.304 
116.4697 62.7486 70.5799 123.31700000000001 71.56909999999999 69.6827 129.0345 69.2234 66.51769999999999 
132.6528 72.9157 65.9308 118.1176 77.4161 72.6773 118.7801 80.6896 72.5096 
123.5632 118.1542 75.2197 127.7713 115.7401 74.3252 126.16669999999999 118.3742 74.9423 
119.508 73.6412 72.3126 157.2103 95.58143 79.8046 157.0321 99.55371 81.3441 
105.77887 85.8539 73.1058 140.712 111.6287 75.3765 120.6688 117.4297 75.5307 
152.5366 63.8061 62.1311 158.375 82.6204 76.77969999999999 153.2831 105.28694 80.39320000000001 
157.7765 101.07412 84.6874 156.5822 104.12579 84.2404 144.9952 107.36446 77.1208 
137.8732 113.289 74.3819 139.9688 113.201 75.4965 124.2273 59.537 66.0274 
110.268 70.6 72.5099 138.0662 70.44630000000001 65.1146 146.8369 74.5856 69.1835 
140.6608 76.8909 68.1217 144.1496 68.4486 65.35079999999999 135.0215 66.00630000000001 64.79740000000001 
151.39679999999998 73.4725 71.4977 152.076 79.6952 76.96770000000001 148.4852 80.4707 73.6853 
124.4288 68.4373 69.7415 127.8955 65.6511 68.14920000000001 154.8527 77.8406 79.7204 
151.4312 85.1831 80.3135 154.6136 83.469 85.715 120.8903 70.32560000000001 72.5955 
158.3734 87.4018 78.7888 158.7458 91.78068999999999 83.3415 159.44819999999999 86.4713 83.069 
146.1806 84.1555 74.675 158.5266 97.27893 84.80369999999999 160.4524 89.53659999999999 88.6069 
160.0654 94.52595 89.4712 116.2616 80.4612 73.4983 115.1532 77.87819999999999 74.8888 
116.55799999999999 75.2264 74.6149 143.1763 88.2008 75.9102 118.70439999999999 83.944 72.8877 
104.86733 80.36449999999999 74.6827 140.2177 91.73901000000001 77.1679 146.936 93.11192 81.30539999999999 
149.5649 89.6544 81.21600000000001 115.3065 83.1782 73.4099 113.6886 80.5875 75.4782 
104.5616 82.7409 74.71770000000001 117.3768 86.3589 72.7683 114.8435 85.4801 72.9513 
113.322 83.679 74.3538 121.1635 88.3344 73.1719 126.0918 91.47335 74.2791 
116.7372 89.0211 72.6275 113.8021 86.7601 73.2865 130.1744 92.46485 75.2186 
134.2321 95.48581 77.1203 138.627 95.29799 78.5632 106.07793 88.7628 73.5561 
106.52619 92.08675 74.0572 104.43647 88.017 75.4298 104.48021 85.2706 74.8934 
119.67439999999999 89.6636 72.9114 123.3793 92.44709 73.7697 109.41979 97.44656 73.826 
104.79633 91.38768999999999 75.3484 103.48837 88.7635 77.4415 103.40246 84.603 77.5358 
103.18422 86.3231 78.0553 120.9181 93.08591 73.1978 118.4438 93.47604 72.8595 
115.0935 90.34311 72.8069 127.6661 95.79729 75.292 130.756 95.6814 76.21209999999999 
106.52188 95.23487 74.53280000000001 122.9774 97.9445 74.04429999999999 116.8106 94.26685 73.0925 
119.9108 97.16733 73.4736 108.31401 100.86891 74.5025 105.68244 97.23474 75.1761 
104.83532 93.83136999999999 75.4838 125.2217 96.56021 74.545 112.4884 101.29338 73.7882 
111.6484 103.85274 74.3661 106.22136 101.60145 75.0693 104.58797 98.49261 76.13980000000001 
104.15775 94.81127000000001 76.56 114.5581 106.48769 74.40729999999999 145.0452 109.96892 77.8463 
107.95311 105.04984 74.72540000000001 110.3763 107.25733 74.7291 108.72911 110.2901 74.953 
106.47216 106.63721 75.128 106.93778 112.809 75.3965 104.81561 102.91544999999999 75.92490000000001 
104.83847 108.72766 76.0438 113.4742 110.4281 75.0378 116.35079999999999 112.7536 75.3255 
111.5575 113.9918 75.2339 109.40283 116.9014 75.3866 118.5464 113.8122 75.3324 
114.7387 117.84819999999999 75.6741 112.0578 120.4689 75.5485 136.1508 114.0346 74.2403 
117.854 118.3323 75.8239 134.9355 115.37010000000001 74.5585 138.8262 114.3599 75.4941 
137.4057 115.4003 75.4382 116.5042 123.13759999999999 75.7604 114.1952 123.13980000000001 75.6229 
130.0197 116.099 74.29939999999999 110.0101 123.3648 75.8433 107.42765 119.1148 75.8586 
112.9199 125.5411 75.639 112.4664 128.4835 76.2147 107.72834 123.5817 76.4493 
109.76868999999999 127.5009 76.8796 119.24549999999999 122.85810000000001 75.7723 128.9178 118.4546 74.79820000000001 
131.5313 117.2812 74.65299999999999 133.7939 116.6508 74.8278 115.3739 126.7952 75.652 
121.9315 122.1855 75.5863 117.9016 126.95830000000001 75.6987 124.3921 121.5438 75.3245 
122.92699999999999 124.8152 75.4497 120.4877 126.1216 75.6018 116.9554 130.4051 76.0715 
114.5106 128.9744 75.8575 126.6425 121.1943 75.1523 119.5748 129.4393 75.8419 
124.9111 123.5589 75.3173 124.2796 125.908 75.49080000000001 121.9627 127.8383 75.6305 
126.507 123.7247 75.3552 123.7931 128.445 75.8955 126.1357 126.1379 75.7088 
[...]
CELL_DATA 11568
SCALARS part float
LOOKUP_TABLE default
19 19 19 19 19 19 19 19 19 
19 19 19 19 19 19 19 19 19 
19 19 19 19 19 19 19 19 19 
19 19 19 19 19 19 19 19 19 
19 19 19 19 19 19 19 19 19 
19 19 19 19 19 19 19 23 23 
19 23 19 23 23 23 19 19 19 
23 23 23 19 19 19 19 19 19 
19 19 19 19 19 19 23 23 23 
23 19 19 19 19 19 19 19 19 
23 23 23 19 19 23 23 23 23 
19 23 23 23 23 19 23 19 19 
23 23 19 19 19 19 19 19 19 
19 19 19 19 19 19 19 19 19 
19 19 19 19 19 19 19 19 19 
19 19 19 19 19 19 19 19 23 
23 23 23 23 19 19 19 23 23 
19 19 19 19 19 23 23 23 19 
19 19 19 19 23 19 19 19 23 
23 19 23 23 23 19 19 19 23 
23 23 23 23 23 23 19 19 19 
19 19 19 19 19 19 19 19 23 
23 23 23 19 19 19 19 19 19 
23 23 19 19 19 23 23 19 19 
19 19 19 19 19 19 19 19 19 
19 19 19 19 19 19 19 19 19 
19 19 19 19 19 19 19 19 19 
19 19 19 19 19 19 19 19 19 
19 19 19 19 19 19 19 19 19 
19 19 19 19 23 23 19 19 19 
19 19 19 19 19 19 19 23 23 
23 19 19 19 19 19 19 19 19 
23 19 19 19 23 23 19 19 19 
19 19 19 19 19 19 23 23 23 
23 19 19 19 19 19 19 19 19 
19 19 19 19 23 23 23 19 19 
19 23 23 19 19 19 19 19 23 
19 19 19 19 19 19 19 19 19 
19 19 19 19 23 23 23 23 19 
19 19 19 19 19 19 19 19 19 
23 23 23 23 19 19 19 19 19 
23 23 19 19 19 19 19 19 19 
19 19 19 19 19 19 19 23 23 
23 19 19 19 19 19 23 23 19 
19 19 19 19 23 23 23 23 19 
19 19 19 23 19 19 19 19 19 
19 19 19 19 19 19 19 23 23 
23 23 23 23 19 19 19 23 19 
19 23 23 23 23 23 19 19 19 
19 19 19 19 19 19 19 23 23 
19 19 19 19 23 23 23 23 19 
19 19 19 19 19 23 23 23 23 
23 19 19 19 19 23 23 23 19 
23 23 23 23 23 23 23 19 19 
19 19 19 19 19 19 19 19 19 
19 19 19 19 19 19 19 19 19 
19 19 19 19 19 19 19 19 19 
19 19 19 19 19 19 19 19 19 
19 19 19 19 19 19 19 19 19 
19 19 19 19 19 19 19 19 19 
19 19 19 19 19 19 19 19 19 
19 19 19 19 19 19 19 19 19 
19 19 19 19 19 19 19 19 19 
19 19 19 19 19 23 23 23 23 
23 23 23 23 23 19 19 19 19 
23 19 19 23 19 19 19 23 19 
19 19 19 19 19 19 19 19 23 
23 19 19 19 19 19 19 23 23 
19 19 23 19 19 23 23 19 19 
19 19 19 19 19 19 23 23 19 
19 19 19 19 19 19 19 19 19 
19 23 23 23 19 19 19 19 19 
19 19 19 19 19 23 23 23 23 
19 19 19 19 19 19 23 23 23 
19 19 23 19 19 19 19 19 23 
23 23 19 19 19 19 19 19 19 
19 19 19 19 23 23 23 23 23 
19 23 23 23 23 23 23 23 23 
23 23 19 19 19 19 23 23 19 
19 19 19 19 19 19 19 19 19 
19 19 19 19 19 19 19 19 19 
19 19 19 19 19 19 19 19 23 
23 23 23 23 19 19 19 19 19 
19 19 19 19 19 19 19 19 19 
19 19 19 19 19 19 23 23 19 
19 19 19 19 19 19 19 19 19 
19 19 19 19 19 19 19 23 23 
19 19 23 23 19 19 19 19 19 
23 23 23 23 23 19 19 19 19 
19 19 19 19 19 19 19 19 19 
19 23 23 19 19 19 19 19 19 
19 19 19 19 23 23 19 19 19 
19 23 23 23 23 19 19 23 23 
19 19 19 19 19 19 23 23 23 
23 23 23 23 23 23 19 19 19 
19 19 23 23 23 23 23 23 23 
19 23 23 23 19 23 23 19 19 
19 19 19 19 19 19 19 19 19 
19 19 19 19 19 23 23 23 23 
23 19 19 19 19 19 19 19 19 
19 19 19 19 19 19 19 19 19 
19 23 23 23 23 19 19 19 19 
19 19 23 19 19 19 19 19 23 
23 23 23 19 19 19 19 23 23 
19 19 19 19 19 19 19 23 23 
23 23 23 23 23 23 19 19 19 
19 23 23 23 23 23 23 19 19 
19 19 19 19 19 19 19 19 19 
19 19 19 19 19 19 19 19 19 
23 19 19 19 19 19 19 19 19 
19 19 19 19 19 19 19 19 19 
19 19 19 19 19 23 23 23 23 
23 23 23 23 23 23 19 23 23 
19 19 19 19 19 19 19 19 19 
19 19 19 19 23 19 19 19 19 
19 19 19 19 19 19 23 23 23 
23 23 19 19 19 19 19 19 19 
19 19 19 19 19 19 19 19 19 
19 19 19 19 23 23 19 19 19 
19 19 19 19 19 19 19 19 19 
19 19 19 23 23 23 23 19 19 
23 23 23 23 23 23 23 19 19 
23 23 23 23 23 19 19 19 19 
19 19 19 19 23 23 23 23 23 
23 23 23 19 19 19 19 19 19 
19 19 23 23 23 19 19 19 19 
23 23 19 19 19 19 19 19 19 
19 19 19 19 19 19 19 19 19 
19 19 19 19 19 19 19 19 19 
19 19 19 19 19 19 19 19 19 
19 19 19 19 19 19 19 19 19 
19 19 19 23 19 19 19 23 23 
23 19 19 23 23 23 19 19 19 
19 19 19 19 19 19 19 19 19 
19 19 19 23 23 23 23 19 19 
19 19 19 19 19 19 19 23 23 
23 19 23 23 19 19 19 19 19 
19 19 19 23 23 19 19 23 23 
23 19 19 19 19 19 19 19 19 
19 19 19 19 19 19 19 19 23 
19 19 19 19 19 19 19 19 19 
23 19 23 23 23 23 23 19 19 
19 19 19 19 19 19 19 19 23 
23 23 23 23 23 23 19 19 19 
19 23 23 19 23 19 19 19 19 
19 19 19 19 19 23 23 23 23 
23 23 23 23 19 19 19 23 23 
23 19 19 19 19 19 23 23 19 
19 19 19 19 23 23 23 23 19 
19 19 19 19 19 19 23 23 19 
23 19 23 23 23 19 19 19 19 
19 19 19 23 23 23 19 19 19 
19 19 19 19 19 19 19 19 19 
19 19 19 19 23 23 19 19 19 
19 19 19 19 19 19 19 19 19 
19 19 19 19 19 23 19 23 23 
23 19 19 19 19 19 19 23 23 
19 23 23 23 19 19 19 19 19 
19 19 19 19 19 19 19 19 19 
19 19 19 19 19 19 19 19 19 
19 19 23 23 19 19 19 19 19 
19 19 23 23 23 23 19 19 19 
19 19 19 23 19 19 19 19 19 
19 23 23 19 19 19 23 23 23 
23 23 19 19 19 19 23 23 23 
23 23 19 19 19 19 19 19 19 
19 19 23 23 23 19 19 19 19 
19 19 19 19 19 19 19 19 19 
23 23 19 23 23 23 19 19 19 
19 19 23 19 19 19 19 19 19 
19 19 19 19 19 23 19 23 23 
23 23 23 19 19 19 23 19 19 
19 19 19 19 19 23 23 19 19 
19 19 19 19 19 19 19 19 19 
19 19 19 19 19 23 19 19 23 
23 23 19 19 23 23 23 23 23 
23 23 23 23 23 23 23 23 23 
23 23 23 23 19 23 23 23 23 
23 19 19 23 19 19 19 19 19 
19 19 19 19 19 19 19 19 19 
19 19 19 19 19 19 19 19 19 
19 19 19 19 19 19 19 23 23 
23 19 19 19 23 23 23 23 19 
19 19 19 19 19 19 19 19 19 
23 23 23 23 23 23 23 23 23 
19 19 19 19 19 19 19 19 19 
19 19 19 19 23 23 23 23 23 
23 19 19 19 19 19 19 19 19 
19 19 19 19 19 19 23 23 19 
19 19 19 19 19 19 19 23 19 
19 19 19 19 19 19 23 23 19 
19 19 19 19 23 23 19 19 19 
19 19 19 19 19 19 19 19 19 
23 23 23 23 23 23 23 23 23 
19 19 19 19 19 19 19 19 19 
19 19 19 19 19 19 23 23 23 
19 19 19 19 19 19 23 23 23 
19 19 19 19 19 19 19 19 23 
23 23 19 19 19 19 19 19 19 
19 19 19 19 19 19 19 19 19 
19 19 19 19 19 19 19 19 19 
19 19 19 19 19 19 19 19 19 
19 19 19 19 19 19 23 23 23 
19 23 19 19 19 19 19 19 19 
19 19 19 19 19 19 19 19 19 
19 19 19 23 23 19 19 19 19 
19 23 23 23 19 19 19 19 19 
19 19 19 19 19 19 19 19 19 
23 23 23 23 19 19 19 19 19 
23 23 19 19 19 19 23 19 19 
19 19 19 19 19 23 23 23 19 
23 23 19 19 23 23 23 23 23 
19 19 19 19 19 19 19 19 19 
19 19 19 23 19 19 19 19 23 
19 23 19 19 19 19 19 19 19 
19 19 23 23 23 23 19 19 19 
19 19 23 23 19 23 23 23 23 
19 19 19 19 19 19 19 19 19 
19 19 19 19 19 19 19 19 19 
19 19 19 19 23 19 19 23 23 
23 23 19 19 23 23 23 19 19 
19 19 19 19 19 19 23 23 23 
23 23 19 23 23 19 19 19 19 
19 19 19 19 19 19 19 19 19 
19 19 19 19 19 23 23 19 19 
19 19 23 19 19 19 19 19 19 
19 19 19 19 19 19 19 19 19 
23 23 23 19 23 23 19 23 23 
23 23 19 19 19 19 19 19 19 
19 19 19 19 19 23 19 19 19 
19 19 19 19 19 19 19 19 23 
23 23 23 23 19 23 23 23 23 
23 19 19 19 19 19 19 19 19 
19 23 19 19 19 19 19 19 19 
23 23 19 19 19 19 23 23 23 
23 23 19 19 19 19 19 19 19 
19 19 19 19 19 19 19 19 23 
23 23 23 23 23 19 19 19 19 
19 19 19 19 23 23 19 19 19 
23 23 23 23 23 19 19 19 19 
19 19 19 19 19 19 19 19 19 
19 19 19 19 19 19 19 19 19 
19 19 23 23 19 19 23 23 23 
23 23 23 23 23 23 23 19 19 
19 19 19 19 19 19 19 19 19 
19 19 23 23 23 19 19 19 23 
23 23 23 23 23 23 19 19 19 
19 19 19 19 19 19 23 19 19 
19 19 19 19 19 19 19 19 23 
23 23 19 19 19 19 19 19 19 
19 19 19 19 19 19 19 19 19 
19 19 19 19 19 19 19 19 19 
19 19 19 19 19 19 19 19 23 
23 23 19 19 19 19 23 23 23 
23 23 23 23 23 23 23 23 23 
23 23 19 19 19 19 19 19 19 
19 19 23 23 23 23 23 23 23 
23 23 23 23 23 23 23 23 23 
19 19 19 19 19 19 19 19 19 
19 23 23 23 23 23 23 23 23 
19 19 19 19 19 19 19 19 19 
19 19 19 23 23 23 19 19 19 
19 23 23 23 23 23 19 19 19 
23 19 19 19 19 19 19 19 19 
19 19 19 19 19 19 19 19 19 
23 19 19 19 19 19 19 23 23 
23 23 23 23 23 23 23 19 19 
19 23 23 19 19 19 19 19 19 
19 19 19 19 19 23 23 19 19 
19 19 19 19 23 19 19 19 23 
23 19 19 19 19 19 19 19 23 
19 23 23 23 23 23 19 23 23 
19 23 23 19 19 19 19 19 19 
19 19 19 19 19 23 19 19 19 
19 23 23 19 19 23 19 19 19 
19 19 19 19 19 19 19 19 19 
19 19 23 19 19 19 23 23 19 
23 23 23 19 19 19 19 19 19 
19 19 19 19 19 19 19 19 19 
19 23 23 23 23 23 19 19 23 
23 23 19 19 19 23 23 23 23 
23 19 19 19 19 19 19 19 19 
19 19 19 19 19 19 19 19 19 
19 19 19 19 19 19 19 19 19 
19 19 23 23 23 23 23 23 23 
19 19 19 19 19 19 19 19 19 
19 19 23 23 23 19 19 19 19 
19 19 19 19 19 19 19 19 19 
19 19 19 19 19 19 23 19 19 
19 19 19 19 19 19 23 23 19 
23 23 19 19 19 19 19 19 19 
19 19 19 19 23 19 19 19 19 
19 19 19 19 23 19 19 19 19 
19 19 19 19 19 23 23 23 19 
23 23 23 23 23 23 23 19 19 
19 19 19 19 19 19 19 19 19 
19 23 23 19 19 19 19 19 19 
19 19 23 23 23 19 19 19 19 
19 19 19 19 19 19 23 23 23 
23 19 19 19 23 23 19 19 19 
19 19 19 19 19 19 19 19 19 
19 23 19 19 19 19 19 19 19 
23 19 19 19 23 23 23 23 23 
19 19 19 19 19 19 19 19 19 
19 19 19 19 19 19 19 19 19 
19 19 23 23 23 19 19 19 19 
19 19 19 19 23 19 19 19 19 
19 19 19 19 19 19 23 23 23 
23 19 23 23 19 23 23 19 19 
19 19 19 19 19 19 19 19 19 
19 19 19 19 19 19 19 23 23 
23 19 23 23 19 19 19 19 19 
19 23 23 23 23 23 23 19 19 
19 19 19 19 19 19 19 23 19 
19 19 19 19 19 19 19 23 23 
19 19 19 19 19 19 19 19 19 
19 19 23 23 23 23 23 23 19 
19 19 19 19 19 19 19 19 19 
19 19 19 19 19 19 19 19 19 
23 23 23 23 23 23 23 23 23 
23 23 23 23 23 19 19 23 23 
19 19 19 19 19 19 19 19 19 
19 23 23 23 23 23 19 19 19 
19 19 19 19 23 23 19 23 23 
23 19 19 19 19 19 19 19 19 
19 19 19 19 19 19 19 23 23 
23 19 23 23 23 19 19 19 19 
19 19 19 19 19 23 23 23 23 
23 23 23 23 23 19 19 23 23 
23 23 23 23 23 23 23 23 19 
19 23 19 23 19 19 19 19 19 
19 19 19 19 19 23 23 23 23 
19 19 19 23 19 19 19 19 19 
23 19 19 19 19 19 23 23 19 
19 19 23 23 23 23 23 23 19 
19 19 19 19 19 19 19 19 19 
19 19 19 19 19 19 23 19 19 
23 19 19 19 19 19 19 19 19 
19 19 19 23 23 23 23 23 23 
23 23 23 23 23 19 19 23 23 
19 19 19 19 19 19 19 19 19 
19 23 19 23 23 23 23 23 23 
23 23 23 23 23 23 19 19 19 
19 19 19 19 19 19 19 23 23 
19 19 23 23 23 23 23 23 19 
19 19 23 23 23 19 19 19 19 
19 19 19 19 19 19 19 23 23 
23 23 23 19 19 19 19 19 19 
19 23 19 19 19 19 19 19 19 
19 19 19 23 23 23 23 19 19 
23 23 23 19 19 19 19 19 19 
19 19 19 19 19 19 23 23 19 
19 19 19 19 23 19 19 19 19 
19 19 19 19 19 19 19 19 19 
19 23 19 19 19 23 23 19 19 
19 19 19 19 19 19 19 19 19 
19 19 19 19 19 19 19 19 19 
19 19 19 23 23 19 19 19 19 
19 19 19 19 19 19 19 19 19 
19 19 19 19 19 19 19 19 23 
23 23 23 23 23 19 19 19 19 
19 19 19 19 19 19 19 19 19 
19 19 19 19 19 19 19 19 19 
23 23 23 23 23 19 19 19 19 
19 19 19 19 19 19 19 19 19 
19 23 23 23 23 23 19 19 19 
23 23 19 19 19 19 19 19 19 
19 19 19 19 19 19 23 23 23 
23 23 23 23 19 19 19 19 19 
19 19 19 23 23 19 19 19 19 
19 19 19 19 19 19 19 19 19 
23 23 23 23 23 23 23 23 23 
23 23 23 23 19 23 19 19 19 
19 19 19 19 19 19 19 19 19 
19 23 23 19 19 19 19 23 23 
23 19 19 19 19 19 19 19 19 
19 19 23 23 23 23 23 23 19 
19 19 19 19 19 19 19 19 19 
19 19 23 23 23 23 23 23 23 
23 23 19 19 19 19 19 19 19 
19 19 19 19 23 23 19 19 19 
19 19 19 19 19 19 19 19 23 
23 19 23 23 23 23 23 23 23 
23 23 23 23 19 19 19 19 19 
19 19 19 23 19 19 23 19 19 
23 23 19 19 19 19 19 19 19 
19 19 19 19 19 19 19 23 23 
23 23 23 19 19 19 19 23 23 
23 23 23 23 23 23 23 23 23 
19 19 19 19 19 19 19 19 19 
19 19 19 23 19 23 23 23 19 
19 19 19 19 19 19 19 19 19 
19 19 19 19 19 19 19 23 23 
23 23 23 19 19 19 19 19 19 
19 19 19 19 19 19 19 19 19 
19 19 19 19 19 19 23 19 19 
19 19 19 19 19 19 19 19 19 
23 19 19 19 19 19 19 19 19 
19 19 19 19 19 19 19 19 19 
23 23 23 23 23 23 19 19 19 
19 19 19 19 19 19 19 19 23 
23 23 23 23 19 19 19 19 19 
19 19 19 19 19 19 19 19 19 
19 19 19 23 23 23 23 23 23 
23 19 19 19 19 19 19 19 19 
19 19 19 19 19 19 19 19 19 
23 23 19 19 19 23 23 19 19 
19 19 19 19 19 19 19 19 19 
19 19 19 19 19 23 23 23 23 
19 19 19 23 23 23 19 19 19 
19 19 19 19 19 19 19 23 19 
19 23 19 19 19 19 19 19 19 
23 23 23 23 23 19 19 19 19 
19 19 19 19 19 19 19 23 19 
23 23 23 23 19 19 19 19 19 
19 19 19 19 19 19 19 19 19 
23 23 23 23 23 23 23 23 23 
23 23 23 23 19 19 19 19 19 
19 19 19 19 19 19 23 23 23 
23 23 23 19 19 23 23 23 19 
19 19 19 19 19 19 19 19 19 
19 23 19 19 23 19 19 19 19 
19 19 19 19 19 19 19 23 23 
23 19 19 19 19 19 23 23 19 
19 19 19 19 19 19 19 19 19 
19 19 19 23 19 19 23 23 23 
23 23 23 23 23 19 19 19 19 
19 19 19 19 19 19 19 19 23 
23 19 19 19 19 19 19 19 19 
19 19 19 19 19 23 23 23 23 
23 23 23 23 23 19 19 23 19 
19 19 19 19 19 19 19 19 19 
19 19 19 19 19 23 23 23 23 
19 19 23 23 19 19 19 19 23 
23 19 19 19 19 19 19 19 19 
19 19 19 19 19 19 19 23 23 
23 23 23 23 23 23 19 19 19 
19 19 19 19 19 19 19 23 23 
19 19 19 19 19 23 23 23 19 
19 19 19 19 19 19 19 19 19 
23 23 23 19 19 19 19 19 19 
19 19 19 19 19 19 23 19 23 
23 19 19 19 19 23 23 23 19 
19 19 19 19 19 19 19 19 19 
19 23 23 23 19 19 23 19 19 
19 19 19 19 23 23 23 19 23 
19 19 19 23 23 23 23 23 23 
23 23 19 19 19 19 19 19 19 
19 19 19 19 19 23 23 23 23 
23 23 23 19 19 19 19 19 19 
19 19 19 19 19 23 23 23 23 
23 23 23 19 19 19 19 19 19 
19 19 19 19 19 19 19 23 23 
23 23 23 23 23 23 23 23 23 
19 19 19 19 19 19 19 19 19 
19 19 23 23 23 23 19 19 19 
19 19 19 19 23 23 19 19 19 
19 19 19 19 19 19 19 19 19 
23 23 23 19 23 19 19 23 23 
23 19 19 19 19 19 19 19 19 
19 19 19 19 23 23 23 23 19 
19 19 19 19 19 19 19 19 19 
19 23 19 19 19 19 19 19 19 
19 19 19 19 19 19 19 19 19 
19 19 19 19 19 19 19 19 19 
19 19 19 19 23 23 23 23 19 
19 19 19 19 19 19 19 19 19 
19 19 19 23 23 23 19 23 23 
23 19 23 19 19 19 19 19 19 
19 19 23 19 19 19 19 23 23 
19 19 19 19 19 19 23 19 19 
23 23 19 19 19 19 19 19 19 
19 19 19 23 23 23 23 19 19 
19 19 19 19 19 19 19 19 19 
19 19 19 23 23 19 19 19 23 
23 23 23 23 19 19 19 19 19 
19 19 19 19 19 19 19 23 23 
23 23 23 19 19 19 19 23 23 
23 23 19 19 19 19 19 19 19 
19 19 19 19 19 19 19 19 23 
23 23 23 23 23 23 19 23 19 
19 19 19 19 19 23 23 19 23 
19 23 19 19 19 19 19 19 19 
19 19 19 19 19 19 19 23 23 
23 19 19 19 19 19 19 19 19 
19 19 23 23 23 19 19 23 23 
19 19 19 19 19 19 19 19 19 
23 23 23 23 23 19 19 19 19 
19 19 19 19 23 19 19 19 23 
19 19 19 19 19 19 19 19 19 
19 19 19 19 19 19 19 19 19 
19 19 19 19 19 19 19 19 23 
23 19 19 23 23 23 23 23 19 
19 19 19 19 19 19 19 19 19 
23 23 23 19 19 19 19 19 19 
19 19 19 19 19 23 23 23 23 
23 23 23 23 23 23 23 19 19 
19 19 19 19 19 19 19 23 23 
23 23 23 23 23 23 23 23 19 
19 19 19 19 19 19 19 19 23 
23 23 23 23 23 19 19 19 19 
19 19 23 23 23 19 19 19 19 
19 19 19 19 23 23 23 23 23 
23 23 19 23 23 23 23 23 23 
23 19 19 19 19 19 19 19 19 
19 19 19 19 19 19 19 19 19 
19 19 19 19 19 19 19 19 19 
23 23 23 23 19 23 23 23 19 
19 19 19 19 19 19 23 23 23 
23 23 23 19 19 23 19 19 19 
19 19 19 19 23 23 23 23 23 
23 23 19 19 19 19 19 19 23 
23 23 23 23 19 19 19 19 19 
19 19 19 19 19 19 23 23 23 
19 19 19 19 23 23 19 19 19 
19 19 19 19 23 23 23 23 23 
23 23 19 19 19 19 19 23 19 
19 19 19 19 19 19 19 19 19 
19 19 23 23 23 23 23 23 23 
23 23 23 23 23 19 19 19 19 
19 19 19 19 19 19 23 23 23 
23 23 19 19 19 19 19 19 19 
19 19 19 19 23 23 23 23 23 
23 23 23 23 19 19 19 19 19 
19 19 19 19 19 19 23 23 23 
23 23 23 23 23 23 23 19 19 
19 19 19 19 19 19 19 23 23 
23 19 19 19 19 19 19 19 23 
23 23 23 19 19 19 19 19 19 
19 19 19 19 23 23 23 19 19 
19 19 23 23 23 23 19 23 23 
23 23 23 23 23 23 23 23 23 
23 23 19 19 19 19 19 19 19 
19 19 19 19 19 19 19 19 19 
19 19 19 19 19 23 23 23 23 
23 23 19 19 19 19 19 19 19 
19 19 19 19 23 23 23 19 19 
19 19 19 19 19 19 19 19 19 
23 23 23 23 19 19 19 19 19 
19 19 19 19 19 23 23 19 19 
19 19 19 19 19 19 19 23 23 
23 19 19 19 19 19 19 19 19 
19 19 23 19 23 23 23 23 23 
23 23 23 19 19 19 19 19 19 
19 19 19 19 19 19 19 19 19 
23 23 23 23 19 19 19 23 23 
23 23 19 19 19 19 19 19 19 
19 19 19 19 19 19 19 19 19 
23 23 23 23 23 23 23 23 23 
19 19 19 19 19 19 19 19 19 
19 19 19 19 19 19 19 19 19 
19 23 23 23 19 19 19 19 23 
23 19 19 19 19 19 19 19 19 
19 19 19 23 23 23 23 23 19 
19 19 19 19 19 19 19 19 19 
19 19 19 19 19 19 19 19 23 
19 19 19 19 19 19 19 19 23 
23 23 23 19 19 19 19 19 19 
19 19 19 19 19 23 19 23 23 
19 19 19 19 19 19 19 19 19 
19 19 19 23 23 19 19 23 23 
23 23 23 23 23 19 19 19 19 
19 19 19 19 19 19 23 23 23 
23 23 23 19 23 19 19 19 23 
23 23 19 19 19 19 19 23 23 
23 19 19 19 19 19 19 19 19 
19 19 19 19 19 19 19 19 19 
19 19 23 23 19 23 23 23 23 
19 19 19 19 19 19 19 19 19 
23 19 19 19 19 19 19 19 23 
23 19 19 19 23 23 23 19 19 
19 19 19 19 19 19 19 19 23 
23 19 19 19 19 19 19 19 19 
23 23 23 23 23 23 19 19 19 
19 19 19 19 19 19 23 23 23 
19 19 23 19 19 19 19 19 19 
23 23 23 23 19 19 19 19 19 
19 19 19 19 19 19 19 19 23 
19 19 19 19 19 19 19 19 23 
19 19 23 23 23 19 19 19 19 
19 19 19 19 19 19 23 19 19 
19 19 19 19 19 19 19 19 19 
19 23 19 19 19 19 19 19 19 
19 19 19 19 19 19 19 19 19 
19 19 19 19 19 19 19 19 19 
23 19 19 19 19 19 19 23 23 
23 23 23 19 19 19 19 23 19 
23 23 19 19 19 19 19 19 19 
19 23 23 19 19 19 19 19 19 
19 19 19 23 19 19 19 19 19 
19 19 23 23 23 19 19 19 19 
19 19 19 19 19 19 19 19 23 
23 23 19 19 19 19 19 19 19 
19 19 19 19 23 23 23 19 19 
19 19 19 19 19 19 19 19 19 
19 19 19 19 19 23 23 23 23 
19 19 19 19 19 19 19 19 19 
19 23 23 19 19 19 19 19 19 
19 19 19 19 19 19 19 19 19 
19 19 19 19 19 19 19 19 19 
19 19 19 19 19 19 19 19 19 
19 23 23 23 23 19 19 23 23 
19 23 19 19 19 19 23 23 19 
19 19 19 19 23 23 23 23 23 
23 23 19 19 19 19 19 19 19 
19 19 19 23 19 19 19 19 19 
19 19 23 19 19 19 19 19 19 
19 19 19 19 19 19 19 19 23 
23 23 19 19 19 19 23 19 19 
19 19 19 23 23 23 23 23 23 
19 19 19 19 19 19 19 19 19 
23 19 19 23 23 19 19 19 23 
23 23 23 23 19 19 23 23 23 
23 23 23 23 19 23 23 23 23 
23 23 23 19 23 23 23 19 23 
19 23 19 19 23 23 19 19 19 
23 19 19 23 23 23 19 19 19 
19 19 19 23 19 23 23 19 19 
19 19 19 19 19 19 19 11 11 
11 11 11 11 11 11 11 11 11 
11 11 11 11 11 11 11 11 11 
11 11 11 11 11 11 11 11 11 
11 11 11 11 11 11 11 11 11 
11 11 11 11 11 11 11 11 11 
11 11 11 11 11 11 11 11 11 
11 11 11 11 11 11 11 11 11 
11 11 11 11 11 11 11 11 11 
11 11 11 11 11 11 11 11 11 
11 11 11 11 11 11 11 11 11 
11 11 11 11 11 11 11 11 11 
11 11 11 11 11 11 11 11 11 
11 11 11 11 11 11 11 11 11 
11 11 11 11 11 11 11 11 11 
11 11 11 11 11 11 11 11 11 
11 11 11 11 11 11 11 11 11 
11 11 11 11 11 11 11 11 11 
11 11 11 11 11 11 11 11 11 
11 11 11 11 11 11 11 11 11 
11 11 11 11 11 11 11 11 11 
11 11 11 11 11 11 11 11 11 
11 11 11 11 11 11 11 11 11 
11 11 11 11 11 11 11 11 11 
11 11 11 11 11 11 11 11 11 
11 11 11 11 11 11 11 11 11 
11 11 11 11 11 11 11 11 11 
11 11 11 11 11 11 11 11 11 
11 11 11 11 11 11 11 11 11 
11 11 11 11 11 11 11 11 11 
11 11 11 11 11 11 11 11 11 
11 11 11 11 11 11 11 11 11 
11 11 11 11 11 11 11 11 11 
11 11 11 11 11 11 11 11 11 
11 11 11 11 11 11 11 11 11 
11 11 11 11 11 11 11 11 11 
11 11 11 11 11 11 11 11 11 
11 11 11 11 11 11 11 11 11 
11 11 11 11 11 11 11 11 11 
11 11 11 11 11 11 11 11 11 
11 11 11 11 11 11 11 11 11 
11 11 11 11 11 11 11 11 11 
11 11 11 11 11 11 11 11 11 
11 11 11 11 11 11 11 11 11 
11 11 11 11 11 11 11 11 11 
11 11 11 11 11 11 11 11 11 
11 11 11 11 11 11 11 11 11 
11 11 11 11 11 11 11 11 11 
11 11 11 11 11 11 11 11 11 
11 11 11 11 11 11 11 11 11 
11 11 11 11 11 11 11 11 11 
11 11 11 11 11 11 11 11 11 
11 11 11 11 11 11 11 11 11 
11 11 11 11 11 11 11 11 11 
11 11 11 11 11 11 11 11 11 
11 11 11 11 11 11 11 11 11 
11 11 11 11 11 11 11 11 11 
11 11 11 11 11 11 11 11 11 
11 11 11 11 11 11 11 11 11 
11 11 11 11 11 11 11 11 11 
11 11 11 11 11 11 11 11 11 
11 11 11 11 11 11 11 11 11 
11 11 11 11 11 11 11 11 11 
11 11 11 11 11 11 11 11 11 
11 11 11 11 11 11 11 11 11 
11 11 11 11 11 11 11 11 11 
11 11 11 11 11 11 11 11 11 
11 11 11 11 11 11 11 11 11 
11 11 11 11 11 11 11 11 11 
11 11 11 11 11 11 11 11 11 
11 11 11 11 11 11 11 11 11 
11 11 11 11 11 11 11 11 11 
11 11 11 11 11 11 11 11 11 
11 11 11 11 11 11 11 11 11 
11 11 11 11 11 11 11 11 11 
11 11 11 11 11 11 11 11 11 
11 11 11 11 11 11 11 11 11 
11 11 11 11 11 11 11 11 11 
11 11 11 11 11 11 11 11 11 
11 11 11 11 11 11 11 11 11 
11 11 11 11 11 11 11 11 11 
11 11 11 11 11 11 11 11 11 
11 11 11 11 11 11 11 11 11 
11 11 11 11 11 11 11 11 11 
11 11 11 11 11 11 11 11 11 
11 11 11 11 11 11 11 11 11 
11 11 11 11 11 11 11 11 11 
11 11 11 11 11 11 11 11 11 
11 11 11 11 11 11 11 11 11 
11 11 11 11 11 11 11 11 11 
11 11 11 11 11 11 11 11 11 
11 11 11 11 11 11 11 11 11 
11 11 11 11 11 11 11 11 11 
11 11 11 11 11 11 11 11 11 