# vtk DataFile Version 3.0
vtk output
ASCII
DATASET POLYDATA
POINTS 5785 float
25.9451 -25.184 -37.6393 21.0061 -23.0559 -35.5019 24.9903 -20.8775 -36.7221 
21.7935 -26.5824 -35.8681 31.8527 -22.0444 -38.5708 32.1873 -27.2688 -39.5669 
26.4312 -29.2812 -38.0037 17.523 -21.4956 -33.8737 19.5851 -19.2369 -34.7066 
17.9652 -24.1014 -33.9466 30.6318 -17.2567 -37.0993 24.3573 -16.6529 -35.6336 
30.0335 -12.9573 -35.4562 35.8397 -12.8278 -35.9 40.0776 -15.8976 -36.6895 
15.5287 -19.2016 -33.0208 14.4663 -21.6471 -32.2324 19.9989 -15.2275 -34.2797 
24.8901 -12.328 -34.4629 16.6815 -16.8951 -33.5036 13.6359 -16.4796 -32.1846 
12.9379 -19.1012 -31.7197 16.7322 -13.4875 -33.0651 21.1713 -11.1269 -33.5751 
13.8559 -13.3145 -32.0616 16.3054 -10.087 -32.2922 19.1032 -9.61755 -32.884 
31.1503 -8.22853 -33.4759 26.6706 -7.57771 -33.0361 13.4935 -10.7841 -31.3934 
11.3036 -14.6879 -30.996 20.6609 -5.40012 -32.046 16.8593 -6.42733 -31.4815 
36.719 -8.37107 -33.6201 42.7314 -8.77363 -32.7865 23.264 -6.67257 -32.6399 
11.0207 -17.8389 -30.8332 32.0399 -31.748 -39.7718 26.5141 -32.8043 -37.7643 
22.2245 -29.9319 -35.9183 15.2281 -24.7187 -32.361 18.5315 -27.1415 -34.092 
11.0754 -11.6933 -30.3702 14.012 -7.02178 -30.4763 12.0291 -23.0199 -30.662 
11.2817 -20.3513 -30.6304 40.0622 -22.8699 -38.8982 48.3139 -16.0046 -34.1929 
49.0426 -8.81861 -30.3544 37.9722 -3.50719 -30.6891 43.4166 -3.62572 -29.2173 
29.5699 -2.07241 -31.1805 25.5032 -2.53647 -31.5812 31.8112 -35.3174 -39.3859 
22.6074 -32.7233 -35.8167 25.9096 -35.9479 -36.8348 39.3078 -28.7813 -40.2105 
38.5279 -33.3147 -40.7232 46.0623 -29.1113 -39.3899 38.3786 -36.6671 -40.7643 
45.0472 -33.4919 -40.6658 18.6665 -30.3292 -33.9758 47.347 -23.1125 -37.2055 
15.9556 -27.2735 -32.6491 13.1027 -25.861 -31.0367 9.44074 -19.2115 -29.7756 
9.11244 -21.6784 -29.0477 9.15007 -17.0338 -29.8504 9.34301 -14.6126 -29.9232 
7.54798 -16.2723 -28.7289 7.79747 -19.2294 -28.6807 9.04982 -12.697 -29.3208 
11.205 -9.03018 -29.5509 33.3223 -3.12886 -31.1513 18.0277 -2.28728 -30.5199 
13.4209 -5.24774 -29.3952 16.2177 -1.88201 -29.5553 25.706 0.74126 -30.6553 
20.9776 -1.62215 -31.0295 30.0938 1.81014 -30.0809 14.8897 -0.96711 -28.2902 
11.8082 -6.07085 -28.6112 24.4757 2.55078 -30.1063 31.4356 5.77722 -28.8666 
28.4931 5.80014 -29.0816 21.9351 2.07658 -29.9577 19.771 2.20211 -29.3482 
23.4868 6.08967 -28.6441 18.3551 3.20587 -28.3118 21.634 6.68744 -27.9762 
20.6678 -34.1106 -34.5079 14.758 -28.8863 -31.8345 16.7659 -32.2806 -32.5779 
33.9263 2.99458 -29.096 34.9367 6.33732 -28.1123 32.3777 -38.3327 -38.9781 
53.4824 -15.7649 -30.4412 54.1735 -8.60095 -26.6321 36.0996 1.88435 -28.7737 
10.1908 -24.6559 -29.1856 43.8917 0.63506 -26.2426 39.5309 1.02542 -27.9042 
25.9951 6.09479 -28.9358 49.4958 -2.86814 -26.571 45.147 -36.4287 -41.0804 
39.2501 -39.2859 -40.7356 7.84856 -23.9936 -27.3047 6.86132 -21.6816 -27.2237 
9.35405 -9.98519 -28.5935 46.2902 -38.6682 -40.9678 34.0116 -40.9812 -38.9236 
40.8279 -41.5808 -40.7382 22.5985 -37.4512 -34.5331 27.7571 -39.3935 -36.6483 
51.3759 -28.5006 -37.2416 50.0196 -32.5997 -39.3267 54.7194 -28.3487 -34.5417 
51.5197 -34.0657 -38.6229 52.5594 -22.6653 -34.1208 55.9788 -22.421 -30.5689 
11.5452 -27.5459 -29.6638 8.91208 -26.5215 -27.3232 29.7614 -18.1026 -29.8833 
24.634 -17.8754 -28.6855 25.2428 -21.9275 -30.392 21.213 -20.6844 -28.5541 
31.4018 -22.7726 -32.3213 21.8589 -24.5463 -29.515 26.5927 -26.2777 -32.1482 
6.14492 -19.3164 -27.2209 54.4595 -2.60516 -23.4737 7.31173 -13.552 -28.1974 
5.80031 -16.7955 -27.157 28.6153 -14.0936 -27.7008 24.6629 -14.7386 -27.4879 
35.0353 -13.2715 -27.2285 27.3378 -11.2172 -26.3392 33.1224 -9.11948 -25.0653 
49.2615 1.46405 -23.8852 54.6331 2.00492 -20.365 10.1455 -6.8066 -27.7799 
12.5638 -3.0895 -27.706 7.70146 -10.6298 -27.6127 8.48167 -7.16561 -26.9291 
11.3526 -2.84929 -26.9504 38.5411 6.49057 -26.7899 41.0625 4.94092 -25.8003 
17.5928 5.3803 -26.9663 14.5377 2.0499 -26.7886 32.7999 9.50386 -27.6945 
35.5938 9.57638 -27.2818 20.535 8.4872 -26.8452 24.5238 9.36115 -27.4692 
23.4762 10.9744 -26.619 27.4482 10.1774 -27.4599 30.1371 9.64881 -27.7549 
19.6443 11.2624 -25.5451 17.1136 8.63762 -25.6282 31.2546 12.7278 -26.6902 
33.5468 12.2799 -26.7669 26.3924 12.586 -26.4783 29.3342 13.8554 -26.2863 
22.3111 13.594 -25.4906 18.5536 -35.7048 -32.5936 56.6206 -16.2068 -26.9106 
57.0459 -10.0282 -23.2246 21.454 -17.0744 -27.7009 44.4725 4.29379 -24.1469 
25.0792 14.9456 -25.5793 13.2822 -30.6988 -30.2846 6.20739 -23.838 -25.2476 
37.6721 -17.7043 -29.5389 48.8513 4.79778 -22.1754 38.4527 9.60071 -26.3433 
38.2158 11.8456 -25.976 35.9032 12.0714 -26.573 56.86 -29.2091 -31.4437 
58.0948 -22.9173 -26.6045 5.43084 -21.7924 -25.3477 22.9807 -13.259 -26.8947 
41.4662 9.63912 -24.5805 42.2688 7.77413 -24.4442 33.7202 14.0641 -26.1502 
32.1887 15.2132 -25.8637 15.0827 -34.034 -30.4294 19.976 -38.8099 -31.696 
16.4697 -37.2514 -29.4201 23.317 -28.4309 -30.3173 29.0345 -30.7766 -33.4823 
32.6528 -27.0843 -34.0692 18.1176 -22.5839 -27.3227 18.7801 -19.3104 -27.4904 
23.5632 18.1542 -24.7803 27.7713 15.7401 -25.6748 26.1667 18.3742 -25.0577 
19.508 -26.3588 -27.6874 57.2103 -4.41857 -20.1954 57.0321 -0.44629 -18.6559 
5.77887 -14.1461 -26.8942 40.712 11.6287 -24.6235 20.6688 17.4297 -24.4693 
52.5366 -36.1939 -37.8689 58.375 -17.3796 -23.2203 53.2831 5.28694 -19.6068 
57.7765 1.07412 -15.3126 56.5822 4.12579 -15.7596 44.9952 7.36446 -22.8792 
37.8732 13.289 -25.6181 39.9688 13.201 -24.5035 24.2273 -40.463 -33.9726 
10.268 -29.4 -27.4901 38.0662 -29.5537 -34.8854 46.8369 -25.4144 -30.8165 
40.6608 -23.1091 -31.8783 44.1496 -31.5514 -34.6492 35.0215 -33.9937 -35.2026 
51.3968 -26.5275 -28.5023 52.076 -20.3048 -23.0323 48.4852 -19.5293 -26.3147 
24.4288 -31.5627 -30.2585 27.8955 -34.3489 -31.8508 54.8527 -22.1594 -20.2796 
51.4312 -14.8169 -19.6865 54.6136 -16.531 -14.285 20.8903 -29.6744 -27.4045 
58.3734 -12.5982 -21.2112 58.7458 -8.21931 -16.6585 59.4482 -13.5287 -16.931 
46.1806 -15.8445 -25.325 58.5266 -2.72107 -15.1963 60.4524 -10.4634 -11.3931 
60.0654 -5.47405 -10.5288 16.2616 -19.5388 -26.5017 15.1532 -22.1218 -25.1112 
16.558 -24.7736 -25.3851 43.1763 -11.7992 -24.0898 18.7044 -16.056 -27.1123 
4.86733 -19.6355 -25.3173 40.2177 -8.26099 -22.8321 46.936 -6.88808 -18.6946 
49.5649 -10.3456 -18.784 15.3065 -16.8218 -26.5901 13.6886 -19.4125 -24.5218 
4.5616 -17.2591 -25.2823 17.3768 -13.6411 -27.2317 14.8435 -14.5199 -27.0487 
13.322 -16.321 -25.6462 21.1635 -11.6656 -26.8281 26.0918 -8.52665 -25.7209 
16.7372 -10.9789 -27.3725 13.8021 -13.2399 -26.7135 30.1744 -7.53515 -24.7814 
34.2321 -4.51419 -22.8797 38.627 -4.70201 -21.4368 6.07793 -11.2372 -26.4439 
6.52619 -7.91325 -25.9428 4.43647 -11.983 -24.5702 4.48021 -14.7294 -25.1066 
19.6744 -10.3364 -27.0886 23.3793 -7.55291 -26.2303 9.41979 -2.55344 -26.174 
4.79633 -8.61231 -24.6516 3.48837 -11.2365 -22.5585 3.40246 -15.397 -22.4642 
3.18422 -13.6769 -21.9447 20.9181 -6.91409 -26.8022 18.4438 -6.52396 -27.1405 
15.0935 -9.65689 -27.1931 27.6661 -4.20271 -24.708 30.756 -4.3186 -23.7879 
6.52188 -4.76513 -25.4672 22.9774 -2.0555 -25.9557 16.8106 -5.73315 -26.9075 
19.9108 -2.83267 -26.5264 8.31401 0.86891 -25.4975 5.68244 -2.76526 -24.8239 
4.83532 -6.16863 -24.5162 25.2217 -3.43979 -25.455 12.4884 1.29338 -26.2118 
11.6484 3.85274 -25.6339 6.22136 1.60145 -24.9307 4.58797 -1.50739 -23.8602 
4.15775 -5.18873 -23.44 14.5581 6.48769 -25.5927 45.0452 9.96892 -22.1537 
7.95311 5.04984 -25.2746 10.3763 7.25733 -25.2709 8.72911 10.2901 -25.047 
6.47216 6.63721 -24.872 6.93778 12.809 -24.6035 4.81561 2.91545 -24.0751 
4.83847 8.72766 -23.9562 13.4742 10.4281 -24.9622 16.3508 12.7536 -24.6745 
11.5575 13.9918 -24.7661 9.40283 16.9014 -24.6134 18.5464 13.8122 -24.6676 
14.7387 17.8482 -24.3259 12.0578 20.4689 -24.4515 36.1508 14.0346 -25.7597 
17.854 18.3323 -24.1761 34.9355 15.3701 -25.4415 38.8262 14.3599 -24.5059 
37.4057 15.4003 -24.5618 16.5042 23.1376 -24.2396 14.1952 23.1398 -24.3771 
30.0197 16.099 -25.7006 10.0101 23.3648 -24.1567 7.42765 19.1148 -24.1414 
12.9199 25.5411 -24.361 12.4664 28.4835 -23.7853 7.72834 23.5817 -23.5507 
9.76869 27.5009 -23.1204 19.2455 22.8581 -24.2277 28.9178 18.4546 -25.2018 
31.5313 17.2812 -25.347 33.7939 16.6508 -25.1722 15.3739 26.7952 -24.348 
21.9315 22.1855 -24.4137 17.9016 26.9583 -24.3013 24.3921 21.5438 -24.6755 
22.927 24.8152 -24.5503 20.4877 26.1216 -24.3982 16.9554 30.4051 -23.9285 
14.5106 28.9744 -24.1425 26.6425 21.1943 -24.8477 19.5748 29.4393 -24.1581 
24.9111 23.5589 -24.6827 24.2796 25.908 -24.5092 21.9627 27.8383 -24.3695 
26.507 23.7247 -24.6448 23.7931 28.445 -24.1045 26.1357 26.1379 -24.2912 
21.5312 30.5961 -23.8072 59.5804 -23.5601 -22.1811 59.0793 -27.5167 -25.4911 
56.6136 -32.8356 -31.7071 59.6723 -18.6062 -17.7379 14.646 -23.8038 -23.3526 
13.4483 -21.9905 -22.4511 15.4351 -25.7877 -22.4649 13.6962 -23.9558 -20.3767 
12.1515 -17.6904 -22.3611 12.4684 -20.218 -21.4517 14.5135 -8.36238 -26.6233 
13.2877 -11.3971 -25.9774 15.0033 31.647 -23.3876 21.096 -41.5041 -30.2415 
48.9892 -32.6731 -33.2304 40.2146 -36.1108 -35.6387 19.2818 -0.8873 -25.8685 
15.8661 -5.15925 -26.0102 5.40901 15.4163 -23.7759 5.85475 20.9928 -23.1818 
28.7258 21.3656 -24.8123 29.6148 -42.1426 -36.4471 54.483 -27.4462 -26.0304 
44.1973 -4.08633 -18.5826 3.77181 -8.33467 -22.9709 22.7931 1.2355 -25.3085 
12.7987 32.0384 -22.4091 35.8651 -43.3896 -38.9213 60.4432 -14.5258 -12.316 
60.2726 -21.3493 -15.2116 60.2348 -18.348 -9.8965 53.3207 -10.8764 -13.4698 
12.4795 -14.6321 -24.6101 48.6306 7.51338 -21.11 48.4723 9.76557 -20.4166 
30.9685 19.4435 -24.9204 19.3313 32.3575 -23.3471 60.0254 -25.0284 -18.3751 
58.5947 -29.9669 -24.1362 17.8017 -27.5303 -24.8813 3.60186 -17.6692 -22.5911 
43.465 11.5662 -22.716 36.0675 16.5128 -24.4941 33.096 18.2214 -24.8065 
34.8967 17.5355 -24.4647 28.4654 23.8591 -24.4644 25.6971 -43.063 -33.2123 
47.428 -40.8733 -40.5054 52.1606 -33.3698 -30.5676 55.7446 -28.5787 -22.4368 
[...]
CELL_DATA 11568
SCALARS part float
LOOKUP_TABLE default
19 19 19 19 19 19 19 19 19 
19 19 19 19 19 19 19 19 19 
19 19 19 19 19 19 19 19 19 
19 19 19 19 19 19 19 19 19 
19 19 19 19 19 19 19 19 19 
19 19 19 19 19 19 19 23 23 
19 23 19 23 23 23 19 19 19 
23 23 23 19 19 19 19 19 19 
19 19 19 19 19 19 23 23 23 
23 19 19 19 19 19 19 19 19 
23 23 23 19 19 23 23 23 23 
19 23 23 23 23 19 23 19 19 
23 23 19 19 19 19 19 19 19 
19 19 19 19 19 19 19 19 19 
19 19 19 19 19 19 19 19 19 
19 19 19 19 19 19 19 19 23 
23 23 23 23 19 19 19 23 23 
19 19 19 19 19 23 23 23 19 
19 19 19 19 23 19 19 19 23 
23 19 23 23 23 19 19 19 23 
23 23 23 23 23 23 19 19 19 
19 19 19 19 19 19 19 19 23 
23 23 23 19 19 19 19 19 19 
23 23 19 19 19 23 23 19 19 
19 19 19 19 19 19 19 19 19 
19 19 19 19 19 19 19 19 19 
19 19 19 19 19 19 19 19 19 
19 19 19 19 19 19 19 19 19 
19 19 19 19 19 19 19 19 19 
19 19 19 19 23 23 19 19 19 
19 19 19 19 19 19 19 23 23 
23 19 19 19 19 19 19 19 19 
23 19 19 19 23 23 19 19 19 
19 19 19 19 19 19 23 23 23 
23 19 19 19 19 19 19 19 19 
19 19 19 19 23 23 23 19 19 
19 23 23 19 19 19 19 19 23 
19 19 19 19 19 19 19 19 19 
19 19 19 19 23 23 23 23 19 
19 19 19 19 19 19 19 19 19 
23 23 23 23 19 19 19 19 19 
23 23 19 19 19 19 19 19 19 
19 19 19 19 19 19 19 23 23 
23 19 19 19 19 19 23 23 19 
19 19 19 19 23 23 23 23 19 
19 19 19 23 19 19 19 19 19 
19 19 19 19 19 19 19 23 23 
23 23 23 23 19 19 19 23 19 
19 23 23 23 23 23 19 19 19 
19 19 19 19 19 19 19 23 23 
19 19 19 19 23 23 23 23 19 
19 19 19 19 19 23 23 23 23 
23 19 19 19 19 23 23 23 19 
23 23 23 23 23 23 23 19 19 
19 19 19 19 19 19 19 19 19 
19 19 19 19 19 19 19 19 19 
19 19 19 19 19 19 19 19 19 
19 19 19 19 19 19 19 19 19 
19 19 19 19 19 19 19 19 19 
19 19 19 19 19 19 19 19 19 
19 19 19 19 19 19 19 19 19 
19 19 19 19 19 19 19 19 19 
19 19 19 19 19 19 19 19 19 
19 19 19 19 19 23 23 23 23 
23 23 23 23 23 19 19 19 19 
23 19 19 23 19 19 19 23 19 
19 19 19 19 19 19 19 19 23 
23 19 19 19 19 19 19 23 23 
19 19 23 19 19 23 23 19 19 
19 19 19 19 19 19 23 23 19 
19 19 19 19 19 19 19 19 19 
19 23 23 23 19 19 19 19 19 
19 19 19 19 19 23 23 23 23 
19 19 19 19 19 19 23 23 23 
19 19 23 19 19 19 19 19 23 
23 23 19 19 19 19 19 19 19 
19 19 19 19 23 23 23 23 23 
19 23 23 23 23 23 23 23 23 
23 23 19 19 19 19 23 23 19 
19 19 19 19 19 19 19 19 19 
19 19 19 19 19 19 19 19 19 
19 19 19 19 19 19 19 19 23 
23 23 23 23 19 19 19 19 19 
19 19 19 19 19 19 19 19 19 
19 19 19 19 19 19 23 23 19 
19 19 19 19 19 19 19 19 19 
19 19 19 19 19 19 19 23 23 
19 19 23 23 19 19 19 19 19 
23 23 23 23 23 19 19 19 19 
19 19 19 19 19 19 19 19 19 
19 23 23 19 19 19 19 19 19 
19 19 19 19 23 23 19 19 19 
19 23 23 23 23 19 19 23 23 
19 19 19 19 19 19 23 23 23 
23 23 23 23 23 23 19 19 19 
19 19 23 23 23 23 23 23 23 
19 23 23 23 19 23 23 19 19 
19 19 19 19 19 19 19 19 19 
19 19 19 19 19 23 23 23 23 
23 19 19 19 19 19 19 19 19 
19 19 19 19 19 19 19 19 19 
19 23 23 23 23 19 19 19 19 
19 19 23 19 19 19 19 19 23 
23 23 23 19 19 19 19 23 23 
19 19 19 19 19 19 19 23 23 
23 23 23 23 23 23 19 19 19 
19 23 23 23 23 23 23 19 19 
19 19 19 19 19 19 19 19 19 
19 19 19 19 19 19 19 19 19 
23 19 19 19 19 19 19 19 19 
19 19 19 19 19 19 19 19 19 
19 19 19 19 19 23 23 23 23 
23 23 23 23 23 23 19 23 23 
19 19 19 19 19 19 19 19 19 
19 19 19 19 23 19 19 19 19 
19 19 19 19 19 19 23 23 23 
23 23 19 19 19 19 19 19 19 
19 19 19 19 19 19 19 19 19 
19 19 19 19 23 23 19 19 19 
19 19 19 19 19 19 19 19 19 
19 19 19 23 23 23 23 19 19 
23 23 23 23 23 23 23 19 19 
23 23 23 23 23 19 19 19 19 
19 19 19 19 23 23 23 23 23 
23 23 23 19 19 19 19 19 19 
19 19 23 23 23 19 19 19 19 
23 23 19 19 19 19 19 19 19 
19 19 19 19 19 19 19 19 19 
19 19 19 19 19 19 19 19 19 
19 19 19 19 19 19 19 19 19 
19 19 19 19 19 19 19 19 19 
19 19 19 23 19 19 19 23 23 
23 19 19 23 23 23 19 19 19 
19 19 19 19 19 19 19 19 19 
19 19 19 23 23 23 23 19 19 
19 19 19 19 19 19 19 23 23 
23 19 23 23 19 19 19 19 19 
19 19 19 23 23 19 19 23 23 
23 19 19 19 19 19 19 19 19 
19 19 19 19 19 19 19 19 23 
19 19 19 19 19 19 19 19 19 
23 19 23 23 23 23 23 19 19 
19 19 19 19 19 19 19 19 23 
23 23 23 23 23 23 19 19 19 
19 23 23 19 23 19 19 19 19 
19 19 19 19 19 23 23 23 23 
23 23 23 23 19 19 19 23 23 
23 19 19 19 19 19 23 23 19 
19 19 19 19 23 23 23 23 19 
19 19 19 19 19 19 23 23 19 
23 19 23 23 23 19 19 19 19 
19 19 19 23 23 23 19 19 19 
19 19 19 19 19 19 19 19 19 
19 19 19 19 23 23 19 19 19 
19 19 19 19 19 19 19 19 19 
19 19 19 19 19 23 19 23 23 
23 19 19 19 19 19 19 23 23 
19 23 23 23 19 19 19 19 19 
19 19 19 19 19 19 19 19 19 
19 19 19 19 19 19 19 19 19 
19 19 23 23 19 19 19 19 19 
19 19 23 23 23 23 19 19 19 
19 19 19 23 19 19 19 19 19 
19 23 23 19 19 19 23 23 23 
23 23 19 19 19 19 23 23 23 
23 23 19 19 19 19 19 19 19 
19 19 23 23 23 19 19 19 19 
19 19 19 19 19 19 19 19 19 
23 23 19 23 23 23 19 19 19 
19 19 23 19 19 19 19 19 19 
19 19 19 19 19 23 19 23 23 
23 23 23 19 19 19 23 19 19 
19 19 19 19 19 23 23 19 19 
19 19 19 19 19 19 19 19 19 
19 19 19 19 19 23 19 19 23 
23 23 19 19 23 23 23 23 23 
23 23 23 23 23 23 23 23 23 
23 23 23 23 19 23 23 23 23 
23 19 19 23 19 19 19 19 19 
19 19 19 19 19 19 19 19 19 
19 19 19 19 19 19 19 19 19 
19 19 19 19 19 19 19 23 23 
23 19 19 19 23 23 23 23 19 
19 19 19 19 19 19 19 19 19 
23 23 23 23 23 23 23 23 23 
19 19 19 19 19 19 19 19 19 
19 19 19 19 23 23 23 23 23 
23 19 19 19 19 19 19 19 19 
19 19 19 19 19 19 23 23 19 
19 19 19 19 19 19 19 23 19 
19 19 19 19 19 19 23 23 19 
19 19 19 19 23 23 19 19 19 
19 19 19 19 19 19 19 19 19 
23 23 23 23 23 23 23 23 23 
19 19 19 19 19 19 19 19 19 
19 19 19 19 19 19 23 23 23 
19 19 19 19 19 19 23 23 23 
19 19 19 19 19 19 19 19 23 
23 23 19 19 19 19 19 19 19 
19 19 19 19 19 19 19 19 19 
19 19 19 19 19 19 19 19 19 
19 19 19 19 19 19 19 19 19 
19 19 19 19 19 19 23 23 23 
19 23 19 19 19 19 19 19 19 
19 19 19 19 19 19 19 19 19 
19 19 19 23 23 19 19 19 19 
19 23 23 23 19 19 19 19 19 
19 19 19 19 19 19 19 19 19 
23 23 23 23 19 19 19 19 19 
23 23 19 19 19 19 23 19 19 
19 19 19 19 19 23 23 23 19 
23 23 19 19 23 23 23 23 23 
19 19 19 19 19 19 19 19 19 
19 19 19 23 19 19 19 19 23 
19 23 19 19 19 19 19 19 19 
19 19 23 23 23 23 19 19 19 
19 19 23 23 19 23 23 23 23 
19 19 19 19 19 19 19 19 19 
19 19 19 19 19 19 19 19 19 
19 19 19 19 23 19 19 23 23 
23 23 19 19 23 23 23 19 19 
19 19 19 19 19 19 23 23 23 
23 23 19 23 23 19 19 19 19 
19 19 19 19 19 19 19 19 19 
19 19 19 19 19 23 23 19 19 
19 19 23 19 19 19 19 19 19 
19 19 19 19 19 19 19 19 19 
23 23 23 19 23 23 19 23 23 
23 23 19 19 19 19 19 19 19 
19 19 19 19 19 23 19 19 19 
19 19 19 19 19 19 19 19 23 
23 23 23 23 19 23 23 23 23 
23 19 19 19 19 19 19 19 19 
19 23 19 19 19 19 19 19 19 
23 23 19 19 19 19 23 23 23 
23 23 19 19 19 19 19 19 19 
19 19 19 19 19 19 19 19 23 
23 23 23 23 23 19 19 19 19 
19 19 19 19 23 23 19 19 19 
23 23 23 23 23 19 19 19 19 
19 19 19 19 19 19 19 19 19 
19 19 19 19 19 19 19 19 19 
19 19 23 23 19 19 23 23 23 
23 23 23 23 23 23 23 19 19 
19 19 19 19 19 19 19 19 19 
19 19 23 23 23 19 19 19 23 
23 23 23 23 23 23 19 19 19 
19 19 19 19 19 19 23 19 19 
19 19 19 19 19 19 19 19 23 
23 23 19 19 19 19 19 19 19 
19 19 19 19 19 19 19 19 19 
19 19 19 19 19 19 19 19 19 
19 19 19 19 19 19 19 19 23 
23 23 19 19 19 19 23 23 23 
23 23 23 23 23 23 23 23 23 
23 23 19 19 19 19 19 19 19 
19 19 23 23 23 23 23 23 23 
23 23 23 23 23 23 23 23 23 
19 19 19 19 19 19 19 19 19 
19 23 23 23 23 23 23 23 23 
19 19 19 19 19 19 19 19 19 
19 19 19 23 23 23 19 19 19 
19 23 23 23 23 23 19 19 19 
23 19 19 19 19 19 19 19 19 
19 19 19 19 19 19 19 19 19 
23 19 19 19 19 19 19 23 23 
23 23 23 23 23 23 23 19 19 
19 23 23 19 19 19 19 19 19 
19 19 19 19 19 23 23 19 19 
19 19 19 19 23 19 19 19 23 
23 19 19 19 19 19 19 19 23 
19 23 23 23 23 23 19 23 23 
19 23 23 19 19 19 19 19 19 
19 19 19 19 19 23 19 19 19 
19 23 23 19 19 23 19 19 19 
19 19 19 19 19 19 19 19 19 
19 19 23 19 19 19 23 23 19 
23 23 23 19 19 19 19 19 19 
19 19 19 19 19 19 19 19 19 
19 23 23 23 23 23 19 19 23 
23 23 19 19 19 23 23 23 23 
23 19 19 19 19 19 19 19 19 
19 19 19 19 19 19 19 19 19 
19 19 19 19 19 19 19 19 19 
19 19 23 23 23 23 23 23 23 
19 19 19 19 19 19 19 19 19 
19 19 23 23 23 19 19 19 19 
19 19 19 19 19 19 19 19 19 
19 19 19 19 19 19 23 19 19 
19 19 19 19 19 19 23 23 19 
23 23 19 19 19 19 19 19 19 
19 19 19 19 23 19 19 19 19 
19 19 19 19 23 19 19 19 19 
19 19 19 19 19 23 23 23 19 
23 23 23 23 23 23 23 19 19 
19 19 19 19 19 19 19 19 19 
19 23 23 19 19 19 19 19 19 
19 19 23 23 23 19 19 19 19 
19 19 19 19 19 19 23 23 23 
23 19 19 19 23 23 19 19 19 
19 19 19 19 19 19 19 19 19 
19 23 19 19 19 19 19 19 19 
23 19 19 19 23 23 23 23 23 
19 19 19 19 19 19 19 19 19 
19 19 19 19 19 19 19 19 19 
19 19 23 23 23 19 19 19 19 
19 19 19 19 23 19 19 19 19 
19 19 19 19 19 19 23 23 23 
23 19 23 23 19 23 23 19 19 
19 19 19 19 19 19 19 19 19 
19 19 19 19 19 19 19 23 23 
23 19 23 23 19 19 19 19 19 
19 23 23 23 23 23 23 19 19 
19 19 19 19 19 19 19 23 19 
19 19 19 19 19 19 19 23 23 
19 19 19 19 19 19 19 19 19 
19 19 23 23 23 23 23 23 19 
19 19 19 19 19 19 19 19 19 
19 19 19 19 19 19 19 19 19 
23 23 23 23 23 23 23 23 23 
23 23 23 23 23 19 19 23 23 
19 19 19 19 19 19 19 19 19 
19 23 23 23 23 23 19 19 19 
19 19 19 19 23 23 19 23 23 
23 19 19 19 19 19 19 19 19 
19 19 19 19 19 19 19 23 23 
23 19 23 23 23 19 19 19 19 
19 19 19 19 19 23 23 23 23 
23 23 23 23 23 19 19 23 23 
23 23 23 23 23 23 23 23 19 
19 23 19 23 19 19 19 19 19 
19 19 19 19 19 23 23 23 23 
19 19 19 23 19 19 19 19 19 
23 19 19 19 19 19 23 23 19 
19 19 23 23 23 23 23 23 19 
19 19 19 19 19 19 19 19 19 
19 19 19 19 19 19 23 19 19 
23 19 19 19 19 19 19 19 19 
19 19 19 23 23 23 23 23 23 
23 23 23 23 23 19 19 23 23 
19 19 19 19 19 19 19 19 19 
19 23 19 23 23 23 23 23 23 
23 23 23 23 23 23 19 19 19 
19 19 19 19 19 19 19 23 23 
19 19 23 23 23 23 23 23 19 
19 19 23 23 23 19 19 19 19 
19 19 19 19 19 19 19 23 23 
23 23 23 19 19 19 19 19 19 
19 23 19 19 19 19 19 19 19 
19 19 19 23 23 23 23 19 19 
23 23 23 19 19 19 19 19 19 
19 19 19 19 19 19 23 23 19 
19 19 19 19 23 19 19 19 19 
19 19 19 19 19 19 19 19 19 
19 23 19 19 19 23 23 19 19 
19 19 19 19 19 19 19 19 19 
19 19 19 19 19 19 19 19 19 
19 19 19 23 23 19 19 19 19 
19 19 19 19 19 19 19 19 19 
19 19 19 19 19 19 19 19 23 
23 23 23 23 23 19 19 19 19 
19 19 19 19 19 19 19 19 19 
19 19 19 19 19 19 19 19 19 
23 23 23 23 23 19 19 19 19 
19 19 19 19 19 19 19 19 19 
19 23 23 23 23 23 19 19 19 
23 23 19 19 19 19 19 19 19 
19 19 19 19 19 19 23 23 23 
23 23 23 23 19 19 19 19 19 
19 19 19 23 23 19 19 19 19 
19 19 19 19 19 19 19 19 19 
23 23 23 23 23 23 23 23 23 
23 23 23 23 19 23 19 19 19 
19 19 19 19 19 19 19 19 19 
19 23 23 19 19 19 19 23 23 
23 19 19 19 19 19 19 19 19 
19 19 23 23 23 23 23 23 19 
19 19 19 19 19 19 19 19 19 
19 19 23 23 23 23 23 23 23 
23 23 19 19 19 19 19 19 19 
19 19 19 19 23 23 19 19 19 
19 19 19 19 19 19 19 19 23 
23 19 23 23 23 23 23 23 23 
23 23 23 23 19 19 19 19 19 
19 19 19 23 19 19 23 19 19 
23 23 19 19 19 19 19 19 19 
19 19 19 19 19 19 19 23 23 
23 23 23 19 19 19 19 23 23 
23 23 23 23 23 23 23 23 23 
19 19 19 19 19 19 19 19 19 
19 19 19 23 19 23 23 23 19 
19 19 19 19 19 19 19 19 19 
19 19 19 19 19 19 19 23 23 
23 23 23 19 19 19 19 19 19 
19 19 19 19 19 19 19 19 19 
19 19 19 19 19 19 23 19 19 
19 19 19 19 19 19 19 19 19 
23 19 19 19 19 19 19 19 19 
19 19 19 19 19 19 19 19 19 
23 23 23 23 23 23 19 19 19 
19 19 19 19 19 19 19 19 23 
23 23 23 23 19 19 19 19 19 
19 19 19 19 19 19 19 19 19 
19 19 19 23 23 23 23 23 23 
23 19 19 19 19 19 19 19 19 
19 19 19 19 19 19 19 19 19 
23 23 19 19 19 23 23 19 19 
19 19 19 19 19 19 19 19 19 
19 19 19 19 19 23 23 23 23 
19 19 19 23 23 23 19 19 19 
19 19 19 19 19 19 19 23 19 
19 23 19 19 19 19 19 19 19 
23 23 23 23 23 19 19 19 19 
19 19 19 19 19 19 19 23 19 
23 23 23 23 19 19 19 19 19 
19 19 19 19 19 19 19 19 19 
23 23 23 23 23 23 23 23 23 
23 23 23 23 19 19 19 19 19 
19 19 19 19 19 19 23 23 23 
23 23 23 19 19 23 23 23 19 
19 19 19 19 19 19 19 19 19 
19 23 19 19 23 19 19 19 19 
19 19 19 19 19 19 19 23 23 
23 19 19 19 19 19 23 23 19 
19 19 19 19 19 19 19 19 19 
19 19 19 23 19 19 23 23 23 
23 23 23 23 23 19 19 19 19 
19 19 19 19 19 19 19 19 23 
23 19 19 19 19 19 19 19 19 
19 19 19 19 19 23 23 23 23 
23 23 23 23 23 19 19 23 19 
19 19 19 19 19 19 19 19 19 
19 19 19 19 19 23 23 23 23 
19 19 23 23 19 19 19 19 23 
23 19 19 19 19 19 19 19 19 
19 19 19 19 19 19 19 23 23 
23 23 23 23 23 23 19 19 19 
19 19 19 19 19 19 19 23 23 
19 19 19 19 19 23 23 23 19 
19 19 19 19 19 19 19 19 19 
23 23 23 19 19 19 19 19 19 
19 19 19 19 19 19 23 19 23 
23 19 19 19 19 23 23 23 19 
19 19 19 19 19 19 19 19 19 
19 23 23 23 19 19 23 19 19 
19 19 19 19 23 23 23 19 23 
19 19 19 23 23 23 23 23 23 
23 23 19 19 19 19 19 19 19 
19 19 19 19 19 23 23 23 23 
23 23 23 19 19 19 19 19 19 
19 19 19 19 19 23 23 23 23 
23 23 23 19 19 19 19 19 19 
19 19 19 19 19 19 19 23 23 
23 23 23 23 23 23 23 23 23 
19 19 19 19 19 19 19 19 19 
19 19 23 23 23 23 19 19 19 
19 19 19 19 23 23 19 19 19 
19 19 19 19 19 19 19 19 19 
23 23 23 19 23 19 19 23 23 
23 19 19 19 19 19 19 19 19 
19 19 19 19 23 23 23 23 19 
19 19 19 19 19 19 19 19 19 
19 23 19 19 19 19 19 19 19 
19 19 19 19 19 19 19 19 19 
19 19 19 19 19 19 19 19 19 
19 19 19 19 23 23 23 23 19 
19 19 19 19 19 19 19 19 19 
19 19 19 23 23 23 19 23 23 
23 19 23 19 19 19 19 19 19 
19 19 23 19 19 19 19 23 23 
19 19 19 19 19 19 23 19 19 
23 23 19 19 19 19 19 19 19 
19 19 19 23 23 23 23 19 19 
19 19 19 19 19 19 19 19 19 
19 19 19 23 23 19 19 19 23 
23 23 23 23 19 19 19 19 19 
19 19 19 19 19 19 19 23 23 
23 23 23 19 19 19 19 23 23 
23 23 19 19 19 19 19 19 19 
19 19 19 19 19 19 19 19 23 
23 23 23 23 23 23 19 23 19 
19 19 19 19 19 23 23 19 23 
19 23 19 19 19 19 19 19 19 
19 19 19 19 19 19 19 23 23 
23 19 19 19 19 19 19 19 19 
19 19 23 23 23 19 19 23 23 
19 19 19 19 19 19 19 19 19 
23 23 23 23 23 19 19 19 19 
19 19 19 19 23 19 19 19 23 
19 19 19 19 19 19 19 19 19 
19 19 19 19 19 19 19 19 19 
19 19 19 19 19 19 19 19 23 
23 19 19 23 23 23 23 23 19 
19 19 19 19 19 19 19 19 19 
23 23 23 19 19 19 19 19 19 
19 19 19 19 19 23 23 23 23 
23 23 23 23 23 23 23 19 19 
19 19 19 19 19 19 19 23 23 
23 23 23 23 23 23 23 23 19 
19 19 19 19 19 19 19 19 23 
23 23 23 23 23 19 19 19 19 
19 19 23 23 23 19 19 19 19 
19 19 19 19 23 23 23 23 23 
23 23 19 23 23 23 23 23 23 
23 19 19 19 19 19 19 19 19 
19 19 19 19 19 19 19 19 19 
19 19 19 19 19 19 19 19 19 
23 23 23 23 19 23 23 23 19 
19 19 19 19 19 19 23 23 23 
23 23 23 19 19 23 19 19 19 
19 19 19 19 23 23 23 23 23 
23 23 19 19 19 19 19 19 23 
23 23 23 23 19 19 19 19 19 
19 19 19 19 19 19 23 23 23 
19 19 19 19 23 23 19 19 19 
19 19 19 19 23 23 23 23 23 
23 23 19 19 19 19 19 23 19 
19 19 19 19 19 19 19 19 19 
19 19 23 23 23 23 23 23 23 
23 23 23 23 23 19 19 19 19 
19 19 19 19 19 19 23 23 23 
23 23 19 19 19 19 19 19 19 
19 19 19 19 23 23 23 23 23 
23 23 23 23 19 19 19 19 19 
19 19 19 19 19 19 23 23 23 
23 23 23 23 23 23 23 19 19 
19 19 19 19 19 19 19 23 23 
23 19 19 19 19 19 19 19 23 
23 23 23 19 19 19 19 19 19 
19 19 19 19 23 23 23 19 19 
19 19 23 23 23 23 19 23 23 
23 23 23 23 23 23 23 23 23 
23 23 19 19 19 19 19 19 19 
19 19 19 19 19 19 19 19 19 
19 19 19 19 19 23 23 23 23 
23 23 19 19 19 19 19 19 19 
19 19 19 19 23 23 23 19 19 
19 19 19 19 19 19 19 19 19 
23 23 23 23 19 19 19 19 19 
19 19 19 19 19 23 23 19 19 
19 19 19 19 19 19 19 23 23 
23 19 19 19 19 19 19 19 19 
19 19 23 19 23 23 23 23 23 
23 23 23 19 19 19 19 19 19 
19 19 19 19 19 19 19 19 19 
23 23 23 23 19 19 19 23 23 
23 23 19 19 19 19 19 19 19 
19 19 19 19 19 19 19 19 19 
23 23 23 23 23 23 23 23 23 
19 19 19 19 19 19 19 19 19 
19 19 19 19 19 19 19 19 19 
19 23 23 23 19 19 19 19 23 
23 19 19 19 19 19 19 19 19 
19 19 19 23 23 23 23 23 19 
19 19 19 19 19 19 19 19 19 
19 19 19 19 19 19 19 19 23 
19 19 19 19 19 19 19 19 23 
23 23 23 19 19 19 19 19 19 
19 19 19 19 19 23 19 23 23 
19 19 19 19 19 19 19 19 19 
19 19 19 23 23 19 19 23 23 
23 23 23 23 23 19 19 19 19 
19 19 19 19 19 19 23 23 23 
23 23 23 19 23 19 19 19 23 
23 23 19 19 19 19 19 23 23 
23 19 19 19 19 19 19 19 19 
19 19 19 19 19 19 19 19 19 
19 19 23 23 19 23 23 23 23 
19 19 19 19 19 19 19 19 19 
23 19 19 19 19 19 19 19 23 
23 19 19 19 23 23 23 19 19 
19 19 19 19 19 19 19 19 23 
23 19 19 19 19 19 19 19 19 
23 23 23 23 23 23 19 19 19 
19 19 19 19 19 19 23 23 23 
19 19 23 19 19 19 19 19 19 
23 23 23 23 19 19 19 19 19 
19 19 19 19 19 19 19 19 23 
19 19 19 19 19 19 19 19 23 
19 19 23 23 23 19 19 19 19 
19 19 19 19 19 19 23 19 19 
19 19 19 19 19 19 19 19 19 
19 23 19 19 19 19 19 19 19 
19 19 19 19 19 19 19 19 19 
19 19 19 19 19 19 19 19 19 
23 19 19 19 19 19 19 23 23 
23 23 23 19 19 19 19 23 19 
23 23 19 19 19 19 19 19 19 
19 23 23 19 19 19 19 19 19 
19 19 19 23 19 19 19 19 19 
19 19 23 23 23 19 19 19 19 
19 19 19 19 19 19 19 19 23 
23 23 19 19 19 19 19 19 19 
19 19 19 19 23 23 23 19 19 
19 19 19 19 19 19 19 19 19 
19 19 19 19 19 23 23 23 23 
19 19 19 19 19 19 19 19 19 
19 23 23 19 19 19 19 19 19 
19 19 19 19 19 19 19 19 19 
19 19 19 19 19 19 19 19 19 
19 19 19 19 19 19 19 19 19 
19 23 23 23 23 19 19 23 23 
19 23 19 19 19 19 23 23 19 
19 19 19 19 23 23 23 23 23 
23 23 19 19 19 19 19 19 19 
19 19 19 23 19 19 19 19 19 
19 19 23 19 19 19 19 19 19 
19 19 19 19 19 19 19 19 23 
23 23 19 19 19 19 23 19 19 
19 19 19 23 23 23 23 23 23 
19 19 19 19 19 19 19 19 19 
23 19 19 23 23 19 19 19 23 
23 23 23 23 19 19 23 23 23 
23 23 23 23 19 23 23 23 23 
23 23 23 19 23 23 23 19 23 
19 23 19 19 23 23 19 19 19 
23 19 19 23 23 23 19 19 19 
19 19 19 23 19 23 23 19 19 
19 19 19 19 19 19 19 11 11 
11 11 11 11 11 11 11 11 11 
11 11 11 11 11 11 11 11 11 
11 11 11 11 11 11 11 11 11 
11 11 11 11 11 11 11 11 11 
11 11 11 11 11 11 11 11 11 
11 11 11 11 11 11 11 11 11 
11 11 11 11 11 11 11 11 11 
11 11 11 11 11 11 11 11 11 
11 11 11 11 11 11 11 11 11 
11 11 11 11 11 11 11 11 11 
11 11 11 11 11 11 11 11 11 
11 11 11 11 11 11 11 11 11 
11 11 11 11 11 11 11 11 11 
11 11 11 11 11 11 11 11 11 
11 11 11 11 11 11 11 11 11 
11 11 11 11 11 11 11 11 11 
11 11 11 11 11 11 11 11 11 
11 11 11 11 11 11 11 11 11 
11 11 11 11 11 11 11 11 11 
11 11 11 11 11 11 11 11 11 
11 11 11 11 11 11 11 11 11 
11 11 11 11 11 11 11 11 11 
11 11 11 11 11 11 11 11 11 
11 11 11 11 11 11 11 11 11 
11 11 11 11 11 11 11 11 11 
11 11 11 11 11 11 11 11 11 
11 11 11 11 11 11 11 11 11 
11 11 11 11 11 11 11 11 11 
11 11 11 11 11 11 11 11 11 
11 11 11 11 11 11 11 11 11 
11 11 11 11 11 11 11 11 11 
11 11 11 11 11 11 11 11 11 
11 11 11 11 11 11 11 11 11 
11 11 11 11 11 11 11 11 11 
11 11 11 11 11 11 11 11 11 
11 11 11 11 11 11 11 11 11 
11 11 11 11 11 11 11 11 11 
11 11 11 11 11 11 11 11 11 
11 11 11 11 11 11 11 11 11 
11 11 11 11 11 11 11 11 11 
11 11 11 11 11 11 11 11 11 
11 11 11 11 11 11 11 11 11 
11 11 11 11 11 11 11 11 11 
11 11 11 11 11 11 11 11 11 
11 11 11 11 11 11 11 11 11 
11 11 11 11 11 11 11 11 11 
11 11 11 11 11 11 11 11 11 
11 11 11 11 11 11 11 11 11 
11 11 11 11 11 11 11 11 11 
11 11 11 11 11 11 11 11 11 
11 11 11 11 11 11 11 11 11 
11 11 11 11 11 11 11 11 11 
11 11 11 11 11 11 11 11 11 
11 11 11 11 11 11 11 11 11 
11 11 11 11 11 11 11 11 11 
11 11 11 11 11 11 11 11 11 
11 11 11 11 11 11 11 11 11 
11 11 11 11 11 11 11 11 11 
11 11 11 11 11 11 11 11 11 
11 11 11 11 11 11 11 11 11 
11 11 11 11 11 11 11 11 11 
11 11 11 11 11 11 11 11 11 
11 11 11 11 11 11 11 11 11 
11 11 11 11 11 11 11 11 11 
11 11 11 11 11 11 11 11 11 
11 11 11 11 11 11 11 11 11 
11 11 11 11 11 11 11 11 11 
11 11 11 11 11 11 11 11 11 
11 11 11 11 11 11 11 11 11 
11 11 11 11 11 11 11 11 11 
11 11 11 11 11 11 11 11 11 
11 11 11 11 11 11 11 11 11 
11 11 11 11 11 11 11 11 11 
11 11 11 11 11 11 11 11 11 
11 11 11 11 11 11 11 11 11 
11 11 11 11 11 11 11 11 11 
11 11 11 11 11 11 11 11 11 
11 11 11 11 11 11 11 11 11 
11 11 11 11 11 11 11 11 11 
11 11 11 11 11 11 11 11 11 
11 11 11 11 11 11 11 11 11 
11 11 11 11 11 11 11 11 11 
11 11 11 11 11 11 11 11 11 
11 11 11 11 11 11 11 11 11 
11 11 11 11 11 11 11 11 11 
11 11 11 11 11 11 11 11 11 
11 11 11 11 11 11 11 11 11 
11 11 11 11 11 11 11 11 11 
11 11 11 11 11 11 11 11 11 
11 11 11 11 11 11 11 11 11 
11 11 11 11 11 11 11 11 11 
11 11 11 11 11 11 11 11 11 
11 11 11 11 11 11 11 11 11 