# vtk DataFile Version 3.0
vtk output
ASCII
DATASET POLYDATA
POINTS 5787 float
155.5985 97.1023 68.3133 148.8288 95.19148 67.84530000000001 151.3302 100.2486 69.34700000000001 
152.5544 92.48509 67.2141 157.44400000000002 103.18299999999999 71.11959999999999 161.7395 98.79054 69.2651 
159.3827 93.25433 67.12639999999999 143.1116 93.43436 67.8382 144.16660000000002 97.2575 68.3272 
145.6418 91.41561 67.5711 153.127 106.36767 72.451 147.4811 103.18058 70.4748 
149.6501 109.20886 73.9515 153.7021 111.3561 75.7284 158.1292 110.1668 75.8467 
138.7074 93.731 68.1187 138.9341 90.47506 68.2985 141.6206 100.86933 69.3736 
144.6839 106.73819 72.21979999999999 138.6326 96.75512 68.3072 134.1025 94.61416 68.5771 
134.9724 91.62054 68.6512 136.136 99.62412 69.0959 139.7809 104.94584 70.9959 
132.0614 97.51957 68.9822 132.9182 102.0172 69.8494 136.1338 104.57416 70.57079999999999 
147.2045 112.8807 76.2816 142.75560000000002 111.1921 74.4693 129.5642 99.1879 69.69460000000001 
129.4166 94.33384 69.276 134.6427 109.01414 71.9349 130.7288 105.1999 70.8762 
151.53379999999999 114.5481 77.9789 155.74360000000001 115.2856 79.3512 138.58100000000002 109.82408 72.8757 
131.3197 91.28469 69.2021 165.3875 93.89368 67.4719 162.3481 88.9671 65.959 
155.7579 89.1664 66.33850000000001 142.1901 88.1602 67.8869 148.7112 88.9085 66.9616 
126.7533 96.4748 70.0388 127.2509 102.23108 70.9354 136.4393 86.9007 69.0802 
133.4863 89.006 69.2938 162.71269999999998 105.29197 73.25880000000001 163.1803 111.2172 78.1491 
159.85320000000002 115.65559999999999 81.0498 149.42860000000002 118.14699999999999 80.41460000000001 153.4299 118.9286 82.1356 
141.3164 116.6664 76.5146 137.6715 114.4398 74.1884 168.1592 88.9207 66.01650000000001 
158.38830000000002 85.9291 65.469 164.1015 83.937 64.90180000000001 166.8878 100.19145 70.7579 
170.386 94.86553 68.4774 171.136 101.38328 72.6291 173.12189999999998 90.00007 66.8634 
174.3745 96.17376 70.0655 151.257 85.3983 65.98599999999999 167.20569999999998 106.49687 75.4196 
145.042 86.2255 67.1691 139.936 84.9121 68.3195 130.0331 88.7056 69.9115 
131.3749 85.8395 70.4666 128.0219 90.58463 69.8865 126.4858 92.83659 69.956 
125.1599 89.9461 70.8982 127.7218 87.3946 70.8314 124.5687 93.99425 70.6913 
124.7784 98.31515 71.1177 145.4327 117.176 78.5435 128.9244 109.17623 71.969 
124.9105 102.69854 71.98570000000001 126.1519 107.61146 72.4858 135.3278 117.1499 74.2086 
132.0118 112.2009 72.4214 138.9374 119.9178 76.4105 123.5017 106.60149 73.64789999999999 
123.2106 100.51729 72.4887 132.65109999999999 117.8712 73.7037 137.3907 123.3758 76.8994 
134.4008 122.3415 75.4401 130.23 115.7085 73.13159999999999 127.5745 113.8654 73.2278 
128.9629 119.7146 74.3324 124.9875 113.0034 74.1012 126.4541 118.5897 74.69579999999999 
156.8635 82.2165 64.8882 144.3647 83.1692 67.0079 149.6883 80.9367 65.652 
141.7678 121.97579999999999 78.739 140.4977 124.7715 79.1112 170.55110000000002 84.4956 65.1045 
166.90789999999998 112.0363 80.437 163.4914 116.286 83.1803 144.4871 121.6702 80.3757 
135.0349 83.4659 70.0496 151.4488 122.32560000000001 84.4769 147.9039 121.8605 82.423 
131.6222 121.3484 74.6708 157.325 119.6213 84.1207 176.9611 91.98683 68.657 
175.46089999999998 86.0496 66.10929999999999 131.4616 82.0866 72.0839 128.3408 83.9683 72.2627 
122.8445 95.9622 71.75450000000001 179.3375 88.6608 68.309 172.8612 80.8239 64.7696 
177.6218 82.5665 66.0539 161.45929999999998 78.7461 64.366 167.48579999999998 79.6462 64.3339 
174.3761 102.51735 74.6483 176.9151 97.68703 71.9439 176.7501 103.10195 76.5595 
179.2164 95.87463 72.1212 170.7244 107.58088 77.678 173.1635 108.78498 80.1955 
138.93869999999998 81.4268 69.0407 134.8547 79.95609999999999 71.8086 152.5895 103.5283 83.4701 
148.4287 99.96573 82.0073 152.5008 98.14743 79.3937 147.5978 95.27883 79.1403 
157.6704 101.79685 80.4414 151.6227 93.29374 77.331 157.4172 96.24415 77.0153 
125.5521 85.9258 72.3012 160.8786 120.3505 85.8769 122.7546 91.84311 71.6237 
123.1747 87.973 72.4625 148.3207 104.86511 86.151 145.7328 101.62762 84.1698 
151.98149999999998 108.63434 88.24549999999999 144.9282 105.46438 87.6116 147.4393 109.983 90.7276 
155.1381 123.1065 86.6613 159.1163 124.5102 88.9589 121.4061 98.42378 73.02629999999999 
121.8586 102.81678 73.8094 121.025 94.03325 72.5315 119.3727 96.6678 73.5748 
119.9502 101.70611 74.3077 143.8875 125.8959 81.9626 146.9647 125.4358 83.9363 
122.3472 113.4487 75.5099 120.6351 107.87999 75.23949999999999 136.2879 126.5398 77.9515 
139.136 127.3688 79.6588 123.91290000000001 118.73 75.8258 127.8441 122.7456 75.5589 
125.7119 123.1273 76.34819999999999 130.38 125.031 76.2616 133.464 125.787 76.82679999999999 
121.14699999999999 119.8323 77.2689 119.5501 115.1586 76.8593 132.8493 128.4456 78.5158 
135.47469999999998 128.8044 79.3421 127.9031 126.2603 77.1146 130.3137 128.6093 78.4019 
123.0162 124.1897 77.657 154.7617 77.7358 64.92869999999999 169.688 112.9365 82.8595 
166.5451 116.81139999999999 85.5003 144.7398 97.62995 81.2488 150.0267 125.65 86.1057 
125.402 127.3035 78.1442 143.5104 79.285 67.6813 129.4218 80.6249 74.5834 
157.1095 107.34765 85.3453 153.3678 126.25919999999999 88.2994 142.0785 128.2764 81.965 
140.7047 129.9298 82.3122 138.0923 129.3272 80.6139 179.0944 102.73058 78.5643 
174.9581 109.91505000000001 83.1995 126.7088 82.441 74.4688 142.96800000000002 101.0281 84.11619999999999 
144.9956 129.4977 84.7663 146.5739 128.2434 85.1411 134.8262 130.1995 80.5265 
132.7467 130.624 80.517 148.4366 76.5813 66.74940000000001 158.7354 74.0095 65.1863 
152.8573 73.1262 67.0745 156.50979999999998 91.61648 76.1818 163.12810000000002 94.19832 75.4118 
162.1165 99.46548 77.7938 145.8079 90.87249 78.4007 143.7361 93.83603 79.24680000000001 
122.6855 129.0305 79.6382 127.9097 129.4029 78.95439999999999 125.4152 130.7752 80.026 
150.76839999999999 89.3539 77.77289999999999 163.85829999999999 120.8535 87.9322 161.9849 123.99459999999999 89.5011 
121.1489 90.0017 72.9147 143.39600000000002 130.7987 84.6213 119.6746 126.1819 79.37440000000001 
181.64440000000002 92.93791 72.2148 171.559 114.2157 86.0178 156.86860000000001 127.3319 90.35923 
161.8509 126.7009 92.66813 159.8074 128.4325 92.9554 149.0624 128.6258 87.1152 
139.6847 130.924 82.8467 141.9797 131.7331 84.8077 164.48770000000002 74.9214 64.4705 
138.8331 77.6859 71.08930000000001 167.1914 99.7507 77.4378 168.8735 105.59267 81.7516 
163.1441 105.2821 82.1063 172.4029 99.69525 77.1323 169.4923 94.01773 74.4699 
172.8829 106.14252 82.4269 168.6867 110.7 87.4466 165.4953 109.63747000000001 85.8222 
160.322 89.8403 75.9748 165.42329999999998 89.8188 75.0822 171.79649999999998 111.18430000000001 89.2047 
164.28730000000002 113.2955 90.83193 167.2363 114.3651 95.18029 155.3404 87.9649 78.0512 
168.8946 116.9828 87.4443 166.7446 121.05969999999999 91.42133 169.9293 118.6887 91.60267999999999 
161.0768 110.8034 87.7778 163.989 124.5877 92.52256 168.5557 122.0548 97.03632 
165.8021 124.9478 97.59249 140.9265 91.31344 79.1418 141.9744 88.0122 80.2037 
146.0891 87.286 79.9173 156.0665 111.9605 90.134 140.8601 95.88307 80.32300000000001 
124.2781 84.2672 74.5463 151.5515 113.03229999999999 92.29713 155.3945 115.58539999999999 94.02774 
159.75310000000002 114.6599 92.60122 137.2896 92.70075 78.8308 137.7542 88.7821 80.9173 
122.0606 86.2161 74.65520000000001 137.1458 96.70631 79.4651 134.5978 94.3964 78.0116 
134.31810000000002 91.44228 79.32730000000001 139.8514 100.58785 83.0809 141.8076 106.06227 88.0433 
134.0341 98.41526 78.9847 132.1213 94.66146 78.0746 144.1505 109.32368 90.6814 
144.9305 113.3237 93.04737 148.0842 114.8261 93.9917 119.3412 92.13121 73.6259 
117.3714 94.46048 74.3066 117.9957 89.8952 75.6962 120.0635 88.1375 74.9656 
137.1019 100.5655 81.6291 138.7157 104.80069 85.759 117.07509999999999 100.1524 74.5076 
115.8159 92.38919 75.563 116.6161 89.0625 78.0709 119.6756 86.0014 78.2011 
118.2236 86.9711 78.816 135.68540000000002 103.8187 83.0802 132.4454 102.83364 80.575 
130.7449 98.45999 78.1508 139.8984 109.86782 90.00672 142.3008 111.6779 91.87868 
114.951 96.32033 74.6893 134.1072 108.83237 85.3901 129.7061 102.40614 79.6445 
131.2185 106.4932 82.2873 113.1554 101.54681 74.6301 112.436 96.76256 75.1462 
113.9824 93.90838 75.5926 137.3288 108.92733 87.7937 118.3824 105.31307 75.2711 
115.5025 106.47904 75.32130000000001 110.0381 100.29008 74.7693 110.3249 96.37819 76.093 
112.5934 93.60383 76.8021 117.6022 111.0029 76.2638 148.0556 131.0273 87.74510000000001 
110.0001 104.588 74.47800000000001 111.7855 108.35957 75.05199999999999 108.10874 109.83312 74.9704 
107.26355 104.61828 74.6834 104.76248 110.635 75.5371 107.6042 99.81545 75.5784 
104.33007 104.73021 75.7301 113.9961 113.5345 76.3831 116.408 117.9899 77.6863 
109.96366 115.5605 76.3477 106.11308 116.8914 76.76429999999999 118.5622 120.8983 78.27850000000001 
112.4952 121.9963 78.5206 108.3088 123.1195 78.82939999999999 137.4613 130.8798 82.1796 
116.1384 124.83 79.556 135.6458 131.5519 82.4935 140.2845 132.1542 84.8092 
138.3352 132.4137 84.6488 113.4918 129.4643 81.5517 110.4517 128.0047 80.86959999999999 
130.14339999999999 130.6082 79.953 104.58678 125.2272 80.1926 102.83125 117.6761 77.7049 
107.96233 130.3251 82.1034 105.84308 133.775 84.5222 101.41157 123.5894 80.3446 
102.14629 130.2884 83.6471 116.9236 130.8927 81.9201 128.3193 132.072 81.0201 
131.4097 132.0389 81.6584 134.0221 132.2274 82.81309999999999 111.16929999999999 133.6042 83.6562 
120.1232 131.905 81.7356 114.664 135.2842 84.4504 122.9276 132.7384 81.5395 
121.01310000000001 135.4254 83.6251 118.05760000000001 135.6608 84.2772 112.3229 139.3437 87.0223 
108.99952 135.9846 85.118 125.4059 133.51069999999999 81.8991 116.385 139.5015 86.8884 
123.30590000000001 135.0468 83.0661 122.4675 137.3274 85.044 119.64150000000001 138.6129 86.1202 
125.03450000000001 135.8671 83.92 121.6642 140.0505 87.54390000000001 124.4839 138.2697 86.2353 
118.59219999999999 141.7306 88.6806 176.6328 110.8119 86.5209 179.6288 105.91787 83.2627 
[...]
CELL_DATA 11573
SCALARS part float
LOOKUP_TABLE default
19 19 19 19 19 19 19 19 19 
19 19 19 19 19 19 19 19 19 
19 19 19 19 19 19 19 19 19 
19 19 19 19 19 19 19 19 19 
19 19 19 19 19 19 19 19 19 
19 19 19 19 19 19 19 23 23 
19 23 19 23 23 23 19 19 19 
23 23 23 19 19 19 19 19 19 
19 19 19 19 19 19 23 23 23 
23 19 19 19 19 19 19 19 19 
23 23 23 19 19 23 23 23 23 
19 23 23 23 23 19 23 19 19 
23 23 19 19 19 19 19 19 19 
19 19 19 19 19 19 19 19 19 
19 19 19 19 19 19 19 19 19 
19 19 19 19 19 19 19 19 23 
23 23 23 23 19 19 19 23 23 
19 19 19 19 19 23 23 23 19 
19 19 19 19 23 19 19 19 23 
23 19 23 23 23 19 19 19 23 
23 23 23 23 23 23 19 19 19 
19 19 19 19 19 19 19 19 23 
23 23 23 19 19 19 19 19 19 
23 23 19 19 19 23 23 19 19 
19 19 19 19 19 19 19 19 19 
19 19 19 19 19 19 19 19 19 
19 19 19 19 19 19 19 19 19 
19 19 19 19 19 19 19 19 19 
19 19 19 19 19 19 19 19 19 
19 19 19 19 23 23 19 19 19 
19 19 19 19 19 19 19 23 23 
23 19 19 19 19 19 19 19 19 
23 19 19 19 23 23 19 19 19 
19 19 19 19 19 19 23 23 23 
23 19 19 19 19 19 19 19 19 
19 19 19 19 23 23 23 19 19 
19 23 23 19 19 19 19 19 23 
19 19 19 19 19 19 19 19 19 
19 19 19 19 23 23 23 23 19 
19 19 19 19 19 19 19 19 19 
23 23 23 23 19 19 19 19 19 
23 23 19 19 19 19 19 19 19 
19 19 19 19 19 19 19 23 23 
23 19 19 19 19 19 23 23 19 
19 19 19 19 23 23 23 23 19 
19 19 19 23 19 19 19 19 19 
19 19 19 19 19 19 19 23 23 
23 23 23 23 19 19 19 23 19 
19 23 23 23 23 23 19 19 19 
19 19 19 19 19 19 19 23 23 
19 19 19 19 23 23 23 23 19 
19 19 19 19 19 23 23 23 23 
23 19 19 19 19 23 23 23 19 
23 23 23 23 23 23 23 19 19 
19 19 19 19 19 19 19 19 19 
19 19 19 19 19 19 19 19 19 
19 19 19 19 19 19 19 19 19 
19 19 19 19 19 19 19 19 19 
19 19 19 19 19 19 19 19 19 
19 19 19 19 19 19 19 19 19 
19 19 19 19 19 19 19 19 19 
19 19 19 19 19 19 19 19 19 
19 19 19 19 19 19 19 19 19 
19 19 19 19 19 23 23 23 23 
23 23 23 23 23 19 19 19 19 
23 19 19 23 19 19 19 23 19 
19 19 19 19 19 19 19 19 23 
23 19 19 19 19 19 19 23 23 
19 19 23 19 19 23 23 19 19 
19 19 19 19 19 19 23 23 19 
19 19 19 19 19 19 19 19 19 
19 23 23 23 19 19 19 19 19 
19 19 19 19 19 23 23 23 23 
19 19 19 19 19 19 23 23 23 
19 19 23 19 19 19 19 19 23 
23 23 19 19 19 19 19 19 19 
19 19 19 19 23 23 23 23 23 
19 23 23 23 23 23 23 23 23 
23 23 19 19 19 19 23 23 19 
19 19 19 19 19 19 19 19 19 
19 19 19 19 19 19 19 19 19 
19 19 19 19 19 19 19 19 23 
23 23 23 23 19 19 19 19 19 
19 19 19 19 19 19 19 19 19 
19 19 19 19 19 19 23 23 19 
19 19 19 19 19 19 19 19 19 
19 19 19 19 19 19 19 23 23 
19 19 23 23 19 19 19 19 19 
23 23 23 23 23 19 19 19 19 
19 19 19 19 19 19 19 19 19 
19 23 23 19 19 19 19 19 19 
19 19 19 19 23 23 19 19 19 
19 23 23 23 23 19 19 23 23 
19 19 19 19 19 19 23 23 23 
23 23 23 23 23 23 19 19 19 
19 19 23 23 23 23 23 23 23 
19 23 23 23 19 23 23 19 19 
19 19 19 19 19 19 19 19 19 
19 19 19 19 19 23 23 23 23 
23 19 19 19 19 19 19 19 19 
19 19 19 19 19 19 19 19 19 
19 23 23 23 23 19 19 19 19 
19 19 23 19 19 19 19 19 23 
23 23 23 19 19 19 19 23 23 
19 19 19 19 19 19 19 23 23 
23 23 23 23 23 23 19 19 19 
19 23 23 23 23 23 23 19 19 
19 19 19 19 19 19 19 19 19 
19 19 19 19 19 19 19 19 19 
23 19 19 19 19 19 19 19 19 
19 19 19 19 19 19 19 19 19 
19 19 19 19 19 23 23 23 23 
23 23 23 23 23 23 19 23 23 
19 19 19 19 19 19 19 19 19 
19 19 19 19 23 23 19 19 19 
19 19 19 19 19 19 19 23 23 
23 23 23 19 19 19 19 19 19 
19 19 19 19 19 19 19 19 19 
19 19 19 19 19 23 23 19 19 
19 19 19 19 19 19 19 19 19 
19 19 19 19 23 23 23 23 19 
19 23 23 23 23 23 23 23 19 
19 23 23 23 23 23 19 19 19 
19 19 19 19 19 23 23 23 23 
23 23 23 23 23 19 19 19 19 
19 19 19 19 23 23 23 19 19 
19 19 23 23 19 19 19 19 19 
19 19 19 19 19 19 19 19 19 
19 19 19 19 19 19 19 19 19 
19 19 19 19 19 19 19 19 19 
19 19 19 19 19 19 19 19 19 
19 19 19 19 19 23 19 19 19 
23 23 23 19 19 23 23 23 19 
19 19 19 19 19 19 19 19 19 
19 19 19 19 19 23 23 23 23 
19 19 19 19 19 19 19 19 19 
23 23 23 19 23 23 19 19 19 
19 19 19 19 19 23 23 19 19 
23 23 23 19 19 19 19 19 19 
19 19 19 19 19 19 19 19 19 
19 23 19 19 19 19 19 19 19 
19 19 23 19 23 23 23 23 23 
19 19 19 19 19 19 19 19 19 
19 23 23 23 23 23 23 23 19 
19 19 19 23 23 19 23 19 19 
19 19 19 19 19 19 19 23 23 
23 23 23 23 23 23 19 19 19 
23 23 23 19 19 19 19 19 23 
23 19 19 19 19 19 23 23 23 
23 19 19 19 19 19 19 19 23 
23 19 23 19 23 23 23 19 19 
19 19 19 19 19 23 23 23 19 
19 19 19 19 19 19 19 19 19 
19 19 19 19 19 19 23 23 19 
19 19 19 19 19 19 19 19 19 
19 19 19 19 19 19 19 23 19 
23 23 23 19 19 19 19 19 19 
23 23 19 23 23 23 19 19 19 
19 19 19 19 19 19 19 19 19 
19 19 19 19 19 19 19 19 19 
19 19 19 19 23 23 19 19 19 
19 19 19 19 23 23 23 23 19 
19 19 19 19 19 23 19 19 19 
19 19 19 23 23 19 19 19 23 
23 23 23 23 19 19 19 19 23 
23 23 23 23 19 19 19 19 19 
19 19 19 19 23 23 23 19 19 
19 19 19 19 19 19 19 19 19 
19 19 23 23 19 23 23 23 19 
19 19 19 19 23 19 19 19 19 
19 19 19 19 19 19 19 23 19 
23 23 23 23 23 19 19 19 23 
19 19 19 19 19 19 19 23 23 
19 19 19 19 19 19 19 19 19 
19 19 19 19 19 19 19 23 19 
19 23 23 23 19 19 23 23 23 
23 23 23 23 23 23 23 23 23 
23 23 23 23 23 23 19 23 23 
23 23 23 19 19 23 19 19 19 
19 19 19 19 19 19 19 19 19 
19 19 19 19 19 19 19 19 19 
19 19 19 19 19 19 19 19 19 
23 23 23 19 19 19 23 23 23 
23 19 19 19 19 19 19 19 19 
19 19 23 23 23 23 23 23 23 
23 23 19 19 19 19 19 19 19 
19 19 19 19 19 19 23 23 23 
23 23 23 19 19 19 19 19 19 
19 19 19 19 19 19 19 19 23 
23 19 19 19 19 19 19 19 19 
23 19 19 19 19 19 19 19 23 
23 19 19 19 19 19 23 23 19 
19 19 19 19 19 19 19 19 19 
19 19 23 23 23 23 23 23 23 
23 23 23 23 19 19 19 19 19 
19 19 19 19 19 19 19 19 19 
19 23 23 23 19 19 19 19 19 
19 23 23 23 19 19 19 19 19 
19 19 19 23 23 23 19 19 19 
19 19 19 19 19 19 19 19 19 
19 19 19 19 19 19 19 19 19 
19 19 19 19 19 19 19 19 19 
19 19 19 19 19 19 19 19 19 
19 23 23 23 19 23 19 19 19 
19 19 19 19 19 19 19 19 19 
19 19 19 19 19 19 19 23 23 
19 19 19 19 19 23 23 23 19 
19 19 19 19 19 19 19 19 19 
19 19 19 19 23 23 23 23 19 
19 19 19 19 23 23 19 19 19 
19 23 19 19 19 19 19 19 19 
23 23 23 19 23 23 19 19 23 
23 23 23 23 19 19 19 19 19 
19 19 19 19 19 19 19 23 19 
19 19 19 23 19 23 19 19 19 
19 19 19 19 19 19 23 23 23 
23 19 19 19 19 19 23 23 19 
23 23 23 23 23 19 19 19 19 
19 19 19 19 19 19 19 19 19 
19 19 19 19 19 19 19 19 19 
23 19 19 23 23 23 23 19 19 
23 23 23 19 19 19 19 19 19 
19 19 23 23 23 23 23 19 23 
23 19 19 19 19 19 19 19 19 
19 19 19 19 19 19 19 19 19 
19 23 23 19 19 19 19 23 19 
19 19 19 19 19 19 19 19 19 
19 19 19 19 19 23 23 23 19 
23 23 19 23 23 23 23 19 19 
19 19 19 19 19 19 19 19 19 
19 23 19 19 19 19 19 19 19 
19 19 19 19 23 23 23 23 23 
19 23 23 23 23 23 19 19 19 
19 19 19 19 19 19 23 19 19 
19 19 19 19 19 23 23 19 19 
19 19 23 23 23 23 23 19 19 
19 19 19 19 19 19 19 19 19 
19 19 19 19 23 23 23 23 23 
23 19 19 19 19 19 19 19 19 
23 23 19 19 19 23 23 23 23 
23 19 19 19 19 19 19 19 19 
19 19 19 19 19 19 19 19 19 
19 19 19 19 19 19 19 23 23 
19 19 23 23 23 23 23 23 23 
23 23 23 19 19 19 19 19 19 
19 19 19 19 19 19 19 23 23 
23 19 19 19 23 23 23 23 23 
23 23 19 19 19 19 19 19 19 
19 19 23 19 19 19 19 19 19 
19 19 19 19 23 23 23 19 19 
19 19 19 19 19 19 19 19 19 
19 19 19 19 19 19 19 19 19 
19 19 19 19 19 19 19 19 19 
19 19 19 19 23 23 23 19 19 
19 19 23 23 23 23 23 23 23 
23 23 23 23 23 23 23 19 19 
19 19 19 19 19 19 19 23 23 
23 23 23 23 23 23 23 23 23 
23 23 23 23 23 19 19 19 19 
19 19 19 19 19 19 23 23 23 
23 23 23 23 23 19 19 19 19 
19 19 19 19 19 19 19 19 23 
23 23 19 19 19 19 23 23 23 
23 23 19 19 19 23 19 19 19 
19 19 19 19 19 19 19 19 19 
19 19 19 19 19 23 19 19 19 
19 19 19 23 23 23 23 23 23 
23 23 23 19 19 19 23 23 19 
19 19 19 19 19 19 19 19 19 
19 23 23 19 19 19 19 19 19 
23 19 19 19 23 23 19 19 19 
19 19 19 19 23 19 23 23 23 
23 23 19 23 23 19 23 23 19 
19 19 19 19 19 19 19 19 19 
19 23 19 19 19 19 23 23 19 
19 23 19 19 19 19 19 19 19 
19 19 19 19 19 19 19 23 19 
19 19 23 23 19 23 23 23 19 
19 19 19 19 19 19 19 19 19 
19 19 19 19 19 19 23 23 23 
23 23 19 19 23 23 23 19 19 
19 23 23 23 23 23 19 19 19 
19 19 19 19 19 19 19 19 19 
19 19 19 19 19 19 19 19 19 
19 19 19 19 19 19 19 23 23 
23 23 23 23 23 19 19 19 19 
19 19 19 19 19 19 19 23 23 
23 19 19 19 19 19 19 19 19 
19 19 19 19 19 19 19 19 19 
19 19 23 19 19 19 19 19 19 
19 19 23 23 19 23 23 19 19 
19 19 19 19 19 19 19 19 19 
23 19 19 19 19 19 19 19 19 
23 19 19 19 19 19 19 19 19 
19 23 23 23 19 23 23 23 23 
23 23 23 19 19 19 19 19 19 
19 19 19 19 19 19 23 23 19 
19 19 19 19 19 19 19 23 23 
23 19 19 19 19 19 19 19 19 
19 19 23 23 23 23 19 19 19 
23 23 19 19 19 19 19 19 19 
19 19 19 19 19 19 23 19 19 
19 19 19 19 19 23 19 19 19 
23 23 23 23 23 19 19 19 19 
19 19 19 19 19 19 19 19 19 
19 19 19 19 19 19 19 23 23 
23 19 19 19 19 19 19 19 19 
23 19 19 19 19 19 19 19 19 
19 19 23 23 23 23 19 23 23 
19 23 23 19 19 19 19 19 19 
19 19 19 19 19 19 19 19 19 
19 19 19 23 23 23 19 23 23 
19 19 19 19 19 19 23 23 23 
23 23 23 19 19 19 19 19 19 
19 19 19 23 19 19 19 19 19 
19 19 19 23 23 19 19 19 19 
19 19 19 19 19 19 19 23 23 
23 23 23 23 19 19 19 19 19 
19 19 19 19 19 19 19 19 19 
19 19 19 19 19 23 23 23 23 
23 23 23 23 23 23 23 23 23 
23 19 19 23 23 19 19 19 19 
19 19 19 19 19 19 23 23 23 
23 23 19 19 19 19 19 19 19 
23 23 19 23 23 23 19 19 19 
19 19 19 19 19 19 19 19 19 
19 19 19 23 23 23 19 23 23 
23 19 19 19 19 19 19 19 19 
19 23 23 23 23 23 23 23 23 
23 19 19 23 23 23 23 23 23 
23 23 23 23 19 19 23 19 23 
19 19 19 19 19 19 19 19 19 
19 23 23 23 23 19 19 19 23 
19 19 19 19 19 23 19 19 19 
19 19 23 23 19 19 19 23 23 
23 23 23 23 19 19 19 19 19 
19 19 19 19 19 19 19 19 19 
19 19 23 19 19 23 19 19 19 
19 19 19 19 19 19 19 19 23 
23 23 23 23 23 23 23 23 23 
23 19 19 23 23 19 19 19 19 
19 19 19 19 19 19 23 19 23 
23 23 23 23 23 23 23 23 23 
23 23 19 19 19 19 19 19 19 
19 19 19 23 23 19 19 23 23 
23 23 23 23 19 19 19 23 23 
23 19 19 19 19 19 19 19 19 
19 19 19 23 23 23 23 23 19 
19 19 19 19 19 19 23 19 19 
19 19 19 19 19 19 19 19 23 
23 23 23 19 19 23 23 23 19 
19 19 19 19 19 19 19 19 19 
19 19 23 23 19 19 19 19 19 
23 19 19 19 19 19 19 19 19 
19 19 19 19 19 19 23 19 19 
19 23 23 19 19 19 19 19 19 
19 19 19 19 19 19 19 19 19 
19 19 19 19 19 19 19 19 23 
23 19 19 19 19 19 19 19 19 
19 19 19 19 19 19 19 19 19 
19 19 19 19 23 23 23 23 23 
23 19 19 19 19 19 19 19 19 
19 19 19 19 19 19 19 19 19 
19 19 19 19 19 23 23 23 23 
23 19 19 19 19 19 19 19 19 
19 19 19 19 19 19 23 23 23 
23 23 19 19 19 23 23 19 19 
19 19 19 19 19 19 19 19 19 
19 19 23 23 23 23 23 23 23 
19 19 19 19 19 19 19 19 23 
23 19 19 19 19 19 19 19 19 
19 19 19 19 19 23 23 23 23 
23 23 23 23 23 23 23 23 23 
19 23 19 19 19 19 19 19 19 
19 19 19 19 19 19 23 23 19 
19 19 19 23 23 23 19 19 19 
19 19 19 19 19 19 19 23 23 
23 23 23 23 19 19 19 19 19 
19 19 19 19 19 19 19 23 23 
23 23 23 23 23 23 23 19 19 
19 19 19 19 19 19 19 19 19 
23 23 19 19 19 19 19 19 19 
19 19 19 19 23 23 19 23 23 
23 23 23 23 23 23 23 23 23 
19 19 19 19 19 19 19 19 23 
19 19 23 19 19 23 23 19 19 
19 19 19 19 19 19 19 19 19 
19 19 19 23 23 23 23 23 19 
19 19 19 23 23 23 23 23 23 
23 23 23 23 23 19 19 19 19 
19 19 19 19 19 19 19 19 23 
19 23 23 23 19 19 19 19 19 
19 19 19 19 19 19 19 19 19 
19 19 19 23 23 23 23 23 19 
19 19 19 19 19 19 19 19 19 
19 19 19 19 19 19 19 19 19 
19 19 23 19 19 19 19 19 19 
19 19 19 19 19 23 19 19 19 
19 19 19 19 19 19 19 19 19 
19 19 19 19 19 23 23 23 23 
23 23 19 19 19 19 19 19 19 
19 19 19 19 23 23 23 23 23 
19 19 19 19 19 19 19 19 19 
19 19 19 19 19 19 19 19 23 
23 23 23 23 23 23 19 19 19 
19 19 19 19 19 19 19 19 19 
19 19 19 19 19 23 23 19 19 
19 23 23 19 19 19 19 19 19 
19 19 19 19 19 19 19 19 19 
19 23 23 23 23 19 19 19 23 
23 23 19 19 19 19 19 19 19 
19 19 19 23 19 19 23 19 19 
19 19 19 19 19 23 23 23 23 
23 19 19 19 19 19 19 19 19 
19 19 19 23 19 23 23 23 23 
19 19 19 19 19 19 19 19 19 
19 19 19 19 19 23 23 23 23 
23 23 23 23 23 23 23 23 23 
19 19 19 19 19 19 19 19 19 
19 19 23 23 23 23 23 23 19 
19 23 23 23 19 19 19 19 19 
19 19 19 19 19 19 23 19 19 
23 19 19 19 19 19 19 19 19 
19 19 19 23 23 23 19 19 19 
19 19 23 23 19 19 19 19 19 
19 19 19 19 19 19 19 19 23 
19 19 23 23 23 23 23 23 23 
23 19 19 19 19 19 19 19 19 
19 19 19 19 23 23 19 19 19 
19 19 19 19 19 19 19 19 19 
19 23 23 23 23 23 23 23 23 
23 19 19 23 19 19 19 19 19 
19 19 19 19 19 19 19 19 19 
19 23 23 23 23 19 19 23 23 
19 19 19 19 23 23 19 19 19 
19 19 19 19 19 19 19 19 19 
19 19 19 23 23 23 23 23 23 
23 23 19 19 19 19 19 19 19 
19 19 19 23 23 19 19 19 19 
19 23 23 23 19 19 19 19 19 
19 19 19 19 19 23 23 23 19 
19 19 19 19 19 19 19 19 19 
19 19 23 19 23 23 19 19 19 
19 23 23 23 19 19 19 19 19 
19 19 19 19 19 19 23 23 23 
19 19 23 19 19 19 19 19 19 
23 23 23 19 23 19 19 19 23 
23 23 23 23 23 23 23 19 19 
19 19 19 19 19 19 19 19 19 
19 23 23 23 23 23 23 23 19 
19 19 19 19 19 19 19 19 19 
19 23 23 23 23 23 23 23 19 
19 19 19 19 19 19 19 19 19 
19 19 19 23 23 23 23 23 23 
23 23 23 23 23 19 19 19 19 
19 19 19 19 19 19 19 23 23 
23 23 19 19 19 19 19 19 19 
23 23 19 19 19 19 19 19 19 
19 19 19 19 19 23 23 23 19 
23 19 19 23 23 23 19 19 19 
19 19 19 19 19 19 19 19 19 
23 23 23 23 19 19 19 19 19 
19 19 19 19 19 19 23 19 19 
19 19 19 19 19 19 19 19 19 
19 19 19 19 19 19 19 19 19 
19 19 19 19 19 19 19 19 19 
23 23 23 23 19 19 19 19 19 
19 19 19 19 19 19 19 19 23 
23 23 19 23 23 23 19 23 19 
19 19 19 19 19 19 19 23 19 
19 19 19 23 23 19 19 19 19 
19 19 23 19 19 23 23 19 19 
19 19 19 19 19 19 19 19 23 
23 23 23 19 19 19 19 19 19 
19 19 19 19 19 19 19 19 23 
23 19 19 19 23 23 23 23 23 
19 19 19 19 19 19 19 19 19 
19 19 19 23 23 23 23 23 19 
19 19 19 23 23 23 23 19 19 
19 19 19 19 19 19 19 19 19 
19 19 19 19 23 23 23 23 23 
23 23 19 23 19 19 19 19 19 
19 23 23 19 23 19 23 19 19 
19 19 19 19 19 19 19 19 19 
19 19 19 23 23 23 19 19 19 
19 19 19 19 19 19 19 23 23 
23 19 19 23 23 19 19 19 19 
19 19 19 19 19 23 23 23 23 
23 19 19 19 19 19 19 19 19 
23 19 19 19 23 19 19 19 19 
19 19 19 19 19 19 19 19 19 
19 19 19 19 19 19 19 19 19 
19 19 19 19 23 23 19 19 23 
23 23 23 23 19 19 19 19 19 
19 19 19 19 19 23 23 23 19 
19 19 19 19 19 19 19 19 19 
19 23 23 23 23 23 23 23 23 
23 23 23 19 19 19 19 19 19 
19 19 19 23 23 23 23 23 23 
23 23 23 23 19 19 19 19 19 
19 19 19 19 23 23 23 23 23 
23 19 19 19 19 19 19 23 23 
23 19 19 19 19 19 19 19 19 
23 23 23 23 23 23 23 19 23 
23 23 23 23 23 23 19 19 19 
19 19 19 19 19 19 19 19 19 
19 19 19 19 19 19 19 19 19 
19 19 19 19 19 23 23 23 23 
19 23 23 23 19 19 19 19 19 
19 19 23 23 23 23 23 23 19 
19 23 19 19 19 19 19 19 19 
23 23 23 23 23 23 23 19 19 
19 19 19 19 23 23 23 23 23 
19 19 19 19 19 19 19 19 19 
19 19 23 23 23 19 19 19 19 
23 23 19 19 19 19 19 19 19 
23 23 23 23 23 23 23 19 19 
19 19 19 23 19 19 19 19 19 
19 19 19 19 19 19 19 23 23 
23 23 23 23 23 23 23 23 23 
23 19 19 19 19 19 19 19 19 
19 19 23 23 23 23 23 19 19 
19 19 19 19 19 19 19 19 19 
23 23 23 23 23 23 23 23 23 
19 19 19 19 19 19 19 19 19 
19 19 23 23 23 23 23 23 23 
23 23 23 19 19 19 19 19 19 
19 19 19 23 23 23 19 19 19 
19 19 19 19 23 23 23 23 19 
19 19 19 19 19 19 19 19 19 
23 23 23 19 19 19 19 23 23 
23 23 19 23 23 23 23 23 23 
23 23 23 23 23 23 23 19 19 
19 19 19 19 19 19 19 19 19 
19 19 19 19 19 19 19 19 19 
19 23 23 23 23 23 23 19 19 
19 19 19 19 19 19 19 19 19 
23 23 23 19 19 19 19 19 19 
19 19 19 19 19 23 23 23 23 
19 19 19 19 19 19 19 19 19 
19 23 23 19 19 19 19 19 19 
19 19 19 23 23 23 19 19 19 
19 19 19 19 19 19 19 23 19 
23 23 23 23 23 23 23 23 19 
19 19 19 19 19 19 19 19 19 
19 19 19 19 19 23 23 23 23 
19 19 19 23 23 23 23 19 19 
19 19 19 19 19 19 19 19 19 
19 19 19 19 19 23 23 23 23 
23 23 23 23 23 19 19 19 19 
19 19 19 19 19 19 19 19 19 
19 19 19 19 19 19 23 23 23 
19 19 19 19 23 23 19 19 19 
19 19 19 19 19 19 19 19 23 
23 23 23 23 19 19 19 19 19 
19 19 19 19 19 19 19 19 19 
19 19 19 19 23 19 19 19 19 
19 19 19 19 23 23 23 23 19 
19 19 19 19 19 19 19 19 19 
19 23 19 23 23 19 19 19 19 
19 19 19 19 19 19 19 19 23 
23 19 19 23 23 23 23 23 23 
23 19 19 19 19 19 19 19 19 
19 19 23 23 23 23 23 23 19 
23 19 19 19 23 23 23 19 19 
19 19 19 23 23 23 19 19 19 
19 19 19 19 19 19 19 19 19 
19 19 19 19 19 19 19 23 23 
19 23 23 23 23 19 19 19 19 
19 19 19 19 19 23 19 19 19 
19 19 19 19 23 23 19 19 19 
23 23 23 19 19 19 19 19 19 
19 19 19 19 23 23 19 19 19 
19 19 19 19 19 23 23 23 23 
23 23 19 19 19 19 19 19 19 
19 19 23 23 23 19 19 23 19 
19 19 19 19 19 23 23 23 23 
19 19 19 19 19 19 19 19 19 
19 19 19 19 23 19 19 19 19 
19 19 19 19 23 19 19 23 23 
23 19 19 19 19 19 19 19 19 
19 19 23 19 19 19 19 19 19 
19 19 19 19 19 19 23 19 19 
19 19 19 19 19 19 19 19 19 
19 19 19 19 19 19 19 19 19 
19 19 19 19 19 23 19 19 19 
19 19 19 23 23 23 23 23 19 
19 19 19 23 19 23 23 19 19 
19 19 19 19 19 19 23 23 19 
19 19 19 19 19 19 19 19 23 
19 19 19 19 19 19 19 23 23 
23 19 19 19 19 19 19 19 19 
19 19 19 19 23 23 23 19 19 
19 19 19 19 19 19 19 19 19 
23 23 23 19 19 19 19 19 19 
19 19 19 19 19 19 19 19 19 
19 23 23 23 23 19 19 19 19 
19 19 19 19 19 19 23 23 19 
19 19 19 19 19 19 19 19 19 
19 19 19 19 19 19 19 19 19 
19 19 19 19 19 19 19 19 19 
19 19 19 19 19 19 23 23 23 
23 19 19 23 23 19 23 19 19 
19 19 23 23 19 19 19 19 19 
23 23 23 23 23 23 23 19 19 
19 19 19 19 19 19 19 19 23 
19 19 19 19 19 19 19 23 19 
19 19 19 19 19 19 19 19 19 
19 19 19 19 23 23 23 19 19 
19 19 23 19 19 19 19 19 23 
23 23 23 23 23 19 19 19 19 
19 19 19 19 19 23 19 19 23 
23 19 19 19 23 23 23 23 23 
19 19 23 23 23 23 23 23 23 
19 23 23 23 23 23 23 23 19 
23 23 23 19 23 19 23 19 19 
23 23 19 19 19 23 19 19 23 
23 23 19 19 19 19 19 19 23 
19 23 23 19 19 19 19 19 19 
19 19 19 11 11 11 11 11 11 
11 11 11 11 11 11 11 11 11 
11 11 11 11 11 11 11 11 11 
11 11 11 11 11 11 11 11 11 
11 11 11 11 11 11 11 11 11 
11 11 11 11 11 11 11 11 11 
11 11 11 11 11 11 11 11 11 
11 11 11 11 11 11 11 11 11 
11 11 11 11 11 11 11 11 11 
11 11 11 11 11 11 11 11 11 
11 11 11 11 11 11 11 11 11 
11 11 11 11 11 11 11 11 11 
11 11 11 11 11 11 11 11 11 
11 11 11 11 11 11 11 11 11 
11 11 11 11 11 11 11 11 11 
11 11 11 11 11 11 11 11 11 
11 11 11 11 11 11 11 11 11 
11 11 11 11 11 11 11 11 11 
11 11 11 11 11 11 11 11 11 
11 11 11 11 11 11 11 11 11 
11 11 11 11 11 11 11 11 11 
11 11 11 11 11 11 11 11 11 
11 11 11 11 11 11 11 11 11 
11 11 11 11 11 11 11 11 11 
11 11 11 11 11 11 11 11 11 
11 11 11 11 11 11 11 11 11 
11 11 11 11 11 11 11 11 11 
11 11 11 11 11 11 11 11 11 
11 11 11 11 11 11 11 11 11 
11 11 11 11 11 11 11 11 11 
11 11 11 11 11 11 11 11 11 
11 11 11 11 11 11 11 11 11 
11 11 11 11 11 11 11 11 11 
11 11 11 11 11 11 11 11 11 
11 11 11 11 11 11 11 11 11 
11 11 11 11 11 11 11 11 11 
11 11 11 11 11 11 11 11 11 
11 11 11 11 11 11 11 11 11 
11 11 11 11 11 11 11 11 11 
11 11 11 11 11 11 11 11 11 
11 11 11 11 11 11 11 11 11 
11 11 11 11 11 11 11 11 11 
11 11 11 11 11 11 11 11 11 
11 11 11 11 11 11 11 11 11 
11 11 11 11 11 11 11 11 11 
11 11 11 11 11 11 11 11 11 
11 11 11 11 11 11 11 11 11 
11 11 11 11 11 11 11 11 11 
11 11 11 11 11 11 11 11 11 
11 11 11 11 11 11 11 11 11 
11 11 11 11 11 11 11 11 11 
11 11 11 11 11 11 11 11 11 
11 11 11 11 11 11 11 11 11 
11 11 11 11 11 11 11 11 11 
11 11 11 11 11 11 11 11 11 
11 11 11 11 11 11 11 11 11 
11 11 11 11 11 11 11 11 11 
11 11 11 11 11 11 11 11 11 
11 11 11 11 11 11 11 11 11 
11 11 11 11 11 11 11 11 11 
11 11 11 11 11 11 11 11 11 
11 11 11 11 11 11 11 11 11 
11 11 11 11 11 11 11 11 11 
11 11 11 11 11 11 11 11 11 
11 11 11 11 11 11 11 11 11 
11 11 11 11 11 11 11 11 11 
11 11 11 11 11 11 11 11 11 
11 11 11 11 11 11 11 11 11 
11 11 11 11 11 11 11 11 11 
11 11 11 11 11 11 11 11 11 
11 11 11 11 11 11 11 11 11 
11 11 11 11 11 11 11 11 11 
11 11 11 11 11 11 11 11 11 
11 11 11 11 11 11 11 11 11 
11 11 11 11 11 11 11 11 11 
11 11 11 11 11 11 11 11 11 
11 11 11 11 11 11 11 11 11 
11 11 11 11 11 11 11 11 11 
11 11 11 11 11 11 11 11 11 
11 11 11 11 11 11 11 11 11 
11 11 11 11 11 11 11 11 11 
11 11 11 11 11 11 11 11 11 
11 11 11 11 11 11 11 11 11 
11 11 11 11 11 11 11 11 11 
11 11 11 11 11 11 11 11 11 
11 11 11 11 11 11 11 11 11 
11 11 11 11 11 11 11 11 11 
11 11 11 11 11 11 11 11 11 
11 11 11 11 11 11 11 11 11 
11 11 11 11 11 11 11 11 11 
11 11 11 11 11 11 11 11 11 
11 11 11 11 11 11 11 11 11 
11 11 11 11 11 11 11 11 11 